#     Step Nr.          Time[fs]        Kin.[a.u.]          Temp[K]            Pot.[a.u.]        Cons Qty[a.u.]        UsedTime[s]
         0            0.000000         0.275037913       300.000000000     -1102.989452160     -1102.714414248         0.000000000
         1            0.500000         0.281183784       306.703663115     -1102.994486296     -1102.714509435       390.764370613
         2            1.000000         0.277373971       302.548076029     -1103.005340926     -1102.714763767        26.437341984
         3            1.500000         0.285222098       311.108489548     -1103.018982300     -1102.715048608       233.623732690
         4            2.000000         0.286460278       312.459044862     -1103.028271358     -1102.715525936        27.896148991
         5            2.500000         0.305763529       333.514234228     -1103.036787889     -1102.715600363        28.111792792
         6            3.000000         0.326740387       356.394924873     -1103.040141028     -1102.715562531        77.713436048
         7            3.500000         0.316590912       345.324296542     -1103.037856723     -1102.715403460        23.646005802
         8            4.000000         0.306203085       333.993682902     -1103.033856400     -1102.715220474        17.112907365
         9            4.500000         0.309571993       337.668349655     -1103.030417666     -1102.715095008        15.005339611
        10            5.000000         0.302935345       330.429367398     -1103.028519537     -1102.715033359        17.384326719
        11            5.500000         0.317320175       346.119745996     -1103.031441073     -1102.715089749        17.144037552
        12            6.000000         0.314523649       343.069410720     -1103.034283124     -1102.715168722        20.661421213
        13            6.500000         0.305219445       332.920768995     -1103.038706510     -1102.715232057        19.262517940
        14            7.000000         0.299931394       327.152781893     -1103.044199233     -1102.715290200        15.073732346
        15            7.500000         0.318514152       347.422086821     -1103.047478080     -1102.715285797        13.617337760
        16            8.000000         0.323736348       353.118243036     -1103.053352389     -1102.715328099        11.532710321
        17            8.500000         0.305979104       333.749374288     -1103.056778777     -1102.715315719        10.146380339
        18            9.000000         0.297940344       324.981026141     -1103.060021397     -1102.715299772         9.419982277
        19            9.500000         0.305108811       332.800094622     -1103.061995226     -1102.715223586         9.410870682
        20           10.000000         0.312557930       340.925286160     -1103.066311164     -1102.715199898        11.497220811
        21           10.500000         0.328775907       358.615185556     -1103.072998827     -1102.715187433         8.706704959
        22           11.000000         0.328351341       358.152086706     -1103.081778659     -1102.715241735         8.707892045
        23           11.500000         0.328881077       358.729900373     -1103.091928125     -1102.715343184         7.972637307
        24           12.000000         0.331653041       361.753444704     -1103.101238210     -1102.715367663         8.033011787
        25           12.500000         0.329672048       359.592659528     -1103.108437583     -1102.715352101         7.287166242
        26           13.000000         0.322935006       352.244172015     -1103.113413579     -1102.715310811         7.282192238
        27           13.500000         0.337451732       368.078417968     -1103.118236031     -1102.715267443         7.325380705
        28           14.000000         0.319537769       348.538606417     -1103.124875191     -1102.715268019         7.294464700
        29           14.500000         0.325730721       355.293622153     -1103.132421410     -1102.715342753         7.294460334
        30           15.000000         0.333698419       363.984458535     -1103.137343308     -1102.715391459         9.059110031
        31           15.500000         0.350912009       382.760331520     -1103.140498811     -1102.715435825         7.277884044
        32           16.000000         0.339312635       370.108213271     -1103.140971655     -1102.715441608         7.340509061
        33           16.500000         0.316914910       345.677699591     -1103.139899045     -1102.715405313         7.291877527
        34           17.000000         0.312756725       341.142123729     -1103.138006896     -1102.715342665         7.313693896
        35           17.500000         0.316362529       345.075185312     -1103.136003872     -1102.715300568         7.333084151
        36           18.000000         0.329519123       359.425855059     -1103.135581068     -1102.715357725         7.288589265
        37           18.500000         0.344805728       376.099852869     -1103.131804314     -1102.715335436         7.283554431
        38           19.000000         0.314620213       343.174739089     -1103.124885969     -1102.715250107         7.309350446
        39           19.500000         0.308964809       337.006058227     -1103.120609712     -1102.715155032         7.296980083
        40           20.000000         0.297630938       324.643539788     -1103.122431061     -1102.715180272         9.175765291
        41           20.500000         0.317024002       345.796692432     -1103.128083606     -1102.715270296         7.304806255
        42           21.000000         0.321140855       350.287185993     -1103.133847259     -1102.715387217         7.308631454
        43           21.500000         0.310768673       338.973638817     -1103.138575602     -1102.715436917         7.347936161
        44           22.000000         0.312980171       341.385849188     -1103.144814096     -1102.715526058         7.329650484
        45           22.500000         0.307616254       335.535110023     -1103.148927894     -1102.715582997         7.314551577
        46           23.000000         0.301247800       328.588663139     -1103.152139514     -1102.715645964         7.365441564
        47           23.500000         0.305383453       333.099662265     -1103.156039485     -1102.715719118         7.301750444
        48           24.000000         0.314490079       343.032794550     -1103.158787305     -1102.715777067         7.321047418
        49           24.500000         0.309234906       337.300668301     -1103.160320770     -1102.715801780         7.313963175
        50           25.000000         0.305459852       333.182995862     -1103.158835175     -1102.715761581         9.498655204
        51           25.500000         0.286494889       312.496797324     -1103.154517497     -1102.715619026         7.441858143
        52           26.000000         0.281751070       307.322435418     -1103.154025359     -1102.715590762         7.534523636
        53           26.500000         0.300141748       327.382227547     -1103.154346253     -1102.715615687         7.641845241
        54           27.000000         0.304939475       332.615389611     -1103.156791026     -1102.715684796         7.610345062
        55           27.500000         0.290967724       317.375580114     -1103.157459337     -1102.715665697         7.548787780
        56           28.000000         0.281318637       306.850755265     -1103.160229547     -1102.715707231         7.525094848
        57           28.500000         0.291042076       317.456680392     -1103.161777479     -1102.715759309         7.290382300
        58           29.000000         0.284613889       310.445079979     -1103.158443219     -1102.715683936         7.307463404
        59           29.500000         0.291834735       318.321280366     -1103.156611117     -1102.715637763         7.342244465
        60           30.000000         0.289287544       315.542909737     -1103.155392899     -1102.715591995         9.774513740
        61           30.500000         0.292463851       319.007494250     -1103.156801495     -1102.715625480         7.561004125
        62           31.000000         0.301658442       329.036574803     -1103.157574105     -1102.715629475         7.441396065
        63           31.500000         0.309697229       337.804951671     -1103.157217060     -1102.715622480         7.435736362
        64           32.000000         0.314301580       342.827187073     -1103.156658314     -1102.715613343         7.512044106
        65           32.500000         0.316620255       345.356302557     -1103.153396473     -1102.715569230         7.460217480
        66           33.000000         0.315604474       344.248330106     -1103.147790480     -1102.715424467         7.550081905
        67           33.500000         0.319806261       348.831466303     -1103.144871696     -1102.715326726         7.580332488
        68           34.000000         0.323828182       353.218411676     -1103.145010854     -1102.715341401         7.475134395
        69           34.500000         0.341269065       372.242207011     -1103.147694230     -1102.715392144         7.561012361
        70           35.000000         0.341709368       372.722470646     -1103.150832952     -1102.715415341         9.928052191
        71           35.500000         0.338179003       368.871694772     -1103.153184312     -1102.715415024         7.419231325
        72           36.000000         0.340422725       371.319054155     -1103.156904549     -1102.715466478         7.417366602
        73           36.500000         0.342276908       373.341520555     -1103.158830446     -1102.715484603         7.365791515
        74           37.000000         0.314347401       342.877166947     -1103.159600194     -1102.715507376         7.447331622
        75           37.500000         0.328354471       358.155500463     -1103.162129068     -1102.715614818         7.456532765
        76           38.000000         0.311795397       340.093546595     -1103.162039892     -1102.715616614         7.387975950
        77           38.500000         0.304980364       332.659989559     -1103.160600330     -1102.715550875         7.441282351
        78           39.000000         0.309001977       337.046599171     -1103.158707672     -1102.715459170         7.400354158
        79           39.500000         0.307343867       335.238001160     -1103.157069713     -1102.715373373         7.384425987
        80           40.000000         0.294825600       321.583592739     -1103.154509885     -1102.715269987         9.163149271
        81           40.500000         0.309698466       337.806300202     -1103.154789498     -1102.715267715         7.344897356
        82           41.000000         0.298741295       325.854671153     -1103.155687402     -1102.715280859         7.425311636
        83           41.500000         0.311366348       339.625557863     -1103.159717495     -1102.715398002         7.328289170
        84           42.000000         0.319247932       348.222463905     -1103.163450840     -1102.715551902         7.330773041
        85           42.500000         0.321351668       350.517132554     -1103.163721944     -1102.715618124         7.376164336
        86           43.000000         0.305528265       333.257618075     -1103.163367776     -1102.715617184         7.347301576
        87           43.500000         0.302670024       330.139966209     -1103.163527152     -1102.715634078         7.342176169
        88           44.000000         0.318702339       347.627354201     -1103.162815240     -1102.715591444         7.392174039
        89           44.500000         0.309147531       337.205363173     -1103.159879880     -1102.715525957         7.416279312
        90           45.000000         0.306136814       333.921398226     -1103.156684626     -1102.715482517         9.999345955
        91           45.500000         0.307498437       335.406599907     -1103.155169875     -1102.715460080         7.373419501
        92           46.000000         0.306298781       334.098065170     -1103.153158316     -1102.715431383         7.391539954
        93           46.500000         0.289984255       316.302853662     -1103.149863081     -1102.715363986         7.423383314
        94           47.000000         0.276624398       301.730472952     -1103.148155123     -1102.715322235         7.390813757
        95           47.500000         0.285151295       311.031260463     -1103.150704422     -1102.715353780         7.339000992
        96           48.000000         0.289129357       315.370366286     -1103.151968214     -1102.715324816         7.340800125
        97           48.500000         0.298137182       325.195729141     -1103.152345966     -1102.715247903         7.330535840
        98           49.000000         0.304098371       331.697947929     -1103.153031415     -1102.715205902         7.369858138
        99           49.500000         0.310292107       338.453820212     -1103.155708025     -1102.715266751         7.309706561
       100           50.000000         0.278098478       303.338338598     -1103.158240677     -1102.715328988         9.366767265
       101           50.500000         0.284802469       310.650774822     -1103.162101343     -1102.715362017         7.335711353
       102           51.000000         0.301305940       328.652079609     -1103.166004863     -1102.715401195         7.336214181
       103           51.500000         0.299579402       326.768843786     -1103.165022005     -1102.715320502         7.321152162
       104           52.000000         0.289648033       315.936116639     -1103.164515262     -1102.715266493         7.352867667
       105           52.500000         0.274351860       299.251682644     -1103.163281248     -1102.715195386         7.307450239
       106           53.000000         0.277898217       303.119901488     -1103.167454015     -1102.715288793         7.359559517
       107           53.500000         0.286616826       312.629800970     -1103.173709793     -1102.715424424         7.306431614
       108           54.000000         0.287545114       313.642338784     -1103.180764800     -1102.715590118         7.322949611
       109           54.500000         0.298422723       325.507185339     -1103.188625535     -1102.715709011         7.369065549
       110           55.000000         0.297259341       324.238216247     -1103.189944780     -1102.715697801         9.771899804
       111           55.500000         0.295665163       322.499353161     -1103.187284472     -1102.715612726         7.347764466
       112           56.000000         0.301682303       329.062601288     -1103.182564191     -1102.715513631         7.330786146
       113           56.500000         0.292398104       318.935780126     -1103.177499462     -1102.715415243         7.315782547
       114           57.000000         0.291062496       317.478954015     -1103.172674148     -1102.715285066         7.356120117
       115           57.500000         0.299515797       326.699466188     -1103.171089035     -1102.715205731         7.313538730
       116           58.000000         0.295526292       322.347878518     -1103.170839721     -1102.715180693         7.305479389
       117           58.500000         0.281966450       307.557362934     -1103.174919406     -1102.715312596         7.355481353
       118           59.000000         0.298962927       326.096418054     -1103.180819443     -1102.715491449         6.603864923
       119           59.500000         0.310567492       338.754197885     -1103.183863724     -1102.715623753         7.308689095
       120           60.000000         0.306969956       334.830155014     -1103.185016427     -1102.715638292         9.828022335
       121           60.500000         0.298175888       325.237948062     -1103.184796391     -1102.715604039         7.324611247
       122           61.000000         0.304576999       332.220015679     -1103.184285386     -1102.715557585         7.349303573
       123           61.500000         0.299223525       326.380667890     -1103.185092866     -1102.715546251         7.337381665
       124           62.000000         0.302714341       330.188305524     -1103.184246465     -1102.715520509         7.324008826
       125           62.500000         0.303393986       330.929633832     -1103.184174293     -1102.715517893         6.665937997
       126           63.000000         0.307880628       335.823478325     -1103.183214958     -1102.715425091         6.635977603
       127           63.500000         0.317734310       346.571467986     -1103.185548378     -1102.715415994         6.602651812
       128           64.000000         0.317176937       345.963508450     -1103.184394220     -1102.715346061         7.341059621
       129           64.500000         0.322004314       351.229011255     -1103.184765612     -1102.715329162         7.316900812
       130           65.000000         0.328489097       358.302345392     -1103.186011959     -1102.715372361        10.064659830
       131           65.500000         0.307736667       335.666451520     -1103.187742423     -1102.715440770         7.318729762
       132           66.000000         0.305917611       333.682299703     -1103.188536824     -1102.715496835         7.308262993
       133           66.500000         0.307509715       335.418901571     -1103.185183234     -1102.715470756         6.653800625
       134           67.000000         0.296477468       323.385381520     -1103.181402224     -1102.715407757         6.633243162
       135           67.500000         0.300311410       327.567287459     -1103.177835602     -1102.715305954         6.612038840
       136           68.000000         0.297467974       324.465784967     -1103.174721399     -1102.715163538         7.377062511
       137           68.500000         0.304710355       332.365475474     -1103.174260394     -1102.715108004         7.331826713
       138           69.000000         0.287026323       313.076463518     -1103.176674682     -1102.715195224         7.317213364
       139           69.500000         0.277417441       302.595491496     -1103.181137370     -1102.715336338         7.352881208
       140           70.000000         0.296753828       323.686824305     -1103.187619249     -1102.715533890         9.680815157
       141           70.500000         0.287850810       313.975779845     -1103.189114710     -1102.715615824         6.626233317
       142           71.000000         0.300509504       327.783360877     -1103.187767700     -1102.715648602         7.331643596
       143           71.500000         0.276557441       301.657438734     -1103.182489522     -1102.715550125         6.597111743
       144           72.000000         0.288017779       314.157902028     -1103.176806615     -1102.715358027         6.638016891
       145           72.500000         0.283454561       309.180532445     -1103.171017774     -1102.715146698         6.614612717
       146           73.000000         0.266522451       290.711685869     -1103.167967136     -1102.715109544         6.613999534
       147           73.500000         0.275933076       300.976407717     -1103.167608475     -1102.715224942         6.646437068
       148           74.000000         0.279241007       304.584562204     -1103.168086338     -1102.715307712         6.629389703
       149           74.500000         0.291641277       318.110264717     -1103.166916920     -1102.715290962         6.607904315
       150           75.000000         0.288711384       314.914458416     -1103.168200827     -1102.715304878         9.638185948
       151           75.500000         0.295424973       322.237363944     -1103.171618725     -1102.715348564         7.305940103
       152           76.000000         0.286040871       312.001572836     -1103.173197613     -1102.715331582         7.331533208
       153           76.500000         0.277471751       302.654730486     -1103.172388913     -1102.715253739         7.365790416
       154           77.000000         0.272980362       297.755708674     -1103.172071795     -1102.715212613         6.605628248
       155           77.500000         0.272108156       296.804342695     -1103.175688067     -1102.715234564         6.619274631
       156           78.000000         0.277071127       302.217746052     -1103.181210015     -1102.715321190         6.648798067
       157           78.500000         0.271362201       295.990686122     -1103.189686277     -1102.715474426         6.611609209
       158           79.000000         0.298941532       326.073081138     -1103.196995652     -1102.715593875         7.330085006
       159           79.500000         0.304867460       332.536838852     -1103.199685823     -1102.715599596         6.647420090
       160           80.000000         0.297224496       324.200208761     -1103.196296483     -1102.715483293         9.008876294
       161           80.500000         0.274698359       299.629629214     -1103.191705175     -1102.715330204         6.649803407
       162           81.000000         0.265030112       289.083904523     -1103.187553539     -1102.715177785         7.327905014
       163           81.500000         0.285908762       311.857473675     -1103.185238902     -1102.715079864         6.618105244
       164           82.000000         0.291003710       317.414832935     -1103.186410102     -1102.715092629         7.373590987
       165           82.500000         0.306803642       334.648746721     -1103.189484156     -1102.715210372         7.342121482
       166           83.000000         0.309341054       337.416450581     -1103.195150891     -1102.715370513         7.299179267
       167           83.500000         0.306393599       334.201488195     -1103.199170312     -1102.715436678         7.344564572
       168           84.000000         0.313729925       342.203649662     -1103.202285178     -1102.715501045         7.309383273
       169           84.500000         0.297541556       324.546044974     -1103.199837037     -1102.715469261         6.598557230
       170           85.000000         0.304609994       332.256005916     -1103.194760021     -1102.715403380         9.263348762
       171           85.500000         0.263330457       287.229990642     -1103.185563479     -1102.715220821         7.309592664
       172           86.000000         0.260239425       283.858420656     -1103.180539270     -1102.715090118         7.351998001
       173           86.500000         0.262598561       286.431668333     -1103.180502826     -1102.715082712         7.328258529
       174           87.000000         0.255750919       278.962544087     -1103.181966171     -1102.715131911         7.319515318
       175           87.500000         0.252147729       275.032332932     -1103.186959190     -1102.715277292         6.663092155
       176           88.000000         0.256865212       280.177968642     -1103.193190357     -1102.715423963         6.655587431
       177           88.500000         0.267225618       291.478672037     -1103.198007714     -1102.715529294         6.604477115
       178           89.000000         0.272571662       297.309915382     -1103.199340468     -1102.715525886         6.663436107
       179           89.500000         0.286877132       312.913731979     -1103.199243771     -1102.715489252         7.314776555
       180           90.000000         0.286366275       312.356509970     -1103.197733915     -1102.715410554        10.023489602
       181           90.500000         0.282861827       308.534002836     -1103.194345378     -1102.715368456         7.350120407
       182           91.000000         0.269172514       293.602265493     -1103.195633338     -1102.715430014         7.303184830
       183           91.500000         0.281159175       306.676820237     -1103.194149792     -1102.715383025         6.645770043
       184           92.000000         0.278956664       304.274411809     -1103.194369748     -1102.715376268         7.312904578
       185           92.500000         0.273491237       298.312949707     -1103.194719694     -1102.715419915         7.318146188
       186           93.000000         0.287673872       313.782782557     -1103.193386909     -1102.715415808         7.365413878
       187           93.500000         0.284290741       310.092603151     -1103.192964066     -1102.715437943         7.326716013
       188           94.000000         0.289144834       315.387246975     -1103.191236915     -1102.715388288         6.613401011
       189           94.500000         0.274467819       299.378165131     -1103.188910324     -1102.715334814         7.360675018
       190           95.000000         0.267463354       291.737984559     -1103.185227731     -1102.715263081         9.427020278
       191           95.500000         0.264368493       288.362237656     -1103.182546763     -1102.715211725         6.798407719
       192           96.000000         0.252058524       274.935032139     -1103.184226308     -1102.715276971         6.912588716
       193           96.500000         0.275486050       300.488809883     -1103.183490923     -1102.715258399         6.636060439
       194           97.000000         0.264548471       288.558549849     -1103.182893337     -1102.715208275         7.370585077
       195           97.500000         0.271449207       296.085587837     -1103.183949838     -1102.715181214         7.322125275
       196           98.000000         0.270394485       294.935141113     -1103.185912240     -1102.715230047         7.329889726
       197           98.500000         0.270809371       295.387681565     -1103.188062511     -1102.715297441         6.681346979
       198           99.000000         0.265008641       289.060484188     -1103.189830534     -1102.715309060         6.617959101
       199           99.500000         0.265560594       289.662532523     -1103.189798617     -1102.715224848         7.334848501
       200          100.000000         0.269222889       293.657212050     -1103.188220361     -1102.715138984         9.968305368
       201          100.500000         0.264104473       288.074255352     -1103.185100677     -1102.715061145         7.313449398
       202          101.000000         0.261769509       285.527373420     -1103.184556799     -1102.715070277         7.329882279
       203          101.500000         0.280902541       306.396894132     -1103.182783564     -1102.715023425         6.768079489
       204          102.000000         0.287288900       313.362871427     -1103.183713200     -1102.714987025         6.677699104
       205          102.500000         0.293134968       319.739521061     -1103.185187886     -1102.714938960         6.669446066
       206          103.000000         0.291276459       317.712335619     -1103.189073561     -1102.714987646         6.643828038
       207          103.500000         0.287020799       313.070438167     -1103.197324150     -1102.715148788         6.606204234
       208          104.000000         0.287106141       313.163524960     -1103.204133619     -1102.715328918         6.750911091
       209          104.500000         0.301888493       329.287504854     -1103.208418702     -1102.715452256         6.710357904
       210          105.000000         0.295898005       322.753327683     -1103.208920792     -1102.715471293         9.062507268
       211          105.500000         0.287706510       313.818382710     -1103.205336688     -1102.715325826         6.645712379
       212          106.000000         0.277736327       302.943318829     -1103.199175270     -1102.715073455         6.621345237
       213          106.500000         0.281425056       306.966832574     -1103.196600251     -1102.714938226         6.815751527
       214          107.000000         0.303191501       330.708772121     -1103.198100758     -1102.714950780         6.750657875
       215          107.500000         0.298555905       325.652455453     -1103.203677690     -1102.715090042         6.650075886
       216          108.000000         0.303271273       330.795784106     -1103.212273222     -1102.715310319         6.619181495
       217          108.500000         0.323735569       353.117393383     -1103.220879506     -1102.715502220         6.669156887
       218          109.000000         0.308663671       336.677589049     -1103.225272997     -1102.715579244         6.780643683
       219          109.500000         0.303329537       330.859335484     -1103.226056611     -1102.715577496         6.700234167
       220          110.000000         0.307451143       335.355013575     -1103.224226363     -1102.715484801         9.338721830
       221          110.500000         0.301444949       328.803705035     -1103.223336348     -1102.715389531         6.612116251
       222          111.000000         0.296641069       323.563831631     -1103.223501011     -1102.715312878         6.647687603
       223          111.500000         0.293750626       320.411054954     -1103.224216050     -1102.715301185         6.839927759
       224          112.000000         0.281056326       306.564636795     -1103.223491136     -1102.715318240         6.728765313
       225          112.500000         0.270630474       295.192548019     -1103.225675930     -1102.715401512         6.671280272
       226          113.000000         0.270539918       295.093773123     -1103.225874931     -1102.715385053         6.660871211
       227          113.500000         0.273258208       298.058771195     -1103.227932766     -1102.715354796         6.615530189