ITEM: TIMESTEP
100000
ITEM: NUMBER OF ATOMS
2048
ITEM: BOX BOUNDS pp pp pp
0.0000000000000000e+00 1.1351867295763070e+01
0.0000000000000000e+00 1.1351867295763070e+01
0.0000000000000000e+00 1.1351867295763070e+01
ITEM: ATOMS id type xs ys zs
1 1 0.00127973 0.997194 1.00032
9 1 0.246954 0.00326007 0.997534
26 1 0.812301 0.0664089 -0.000769972
29 1 0.873511 0.00540231 0.000865655
2 1 0.0617978 0.0609807 0.000485915
6 1 0.18702 0.0671736 0.00347474
10 1 0.314193 0.0582698 0.00284472
16 1 0.371214 0.0630487 0.0652861
20 1 0.498865 0.0652893 0.0621849
18 1 0.558017 0.063058 -0.0024816
22 1 0.685265 0.0594245 0.00427953
30 1 0.933605 0.0630199 0.998436
37 1 0.123506 0.122512 0.00221897
41 1 0.255776 0.122826 1.0003
57 1 0.748968 0.120654 -0.00154859
61 1 0.873464 0.130829 0.999875
33 1 0.999025 0.120204 0.00460856
34 1 0.056452 0.182263 0.00256239
38 1 0.188217 0.179645 1.00272
42 1 0.318037 0.187465 0.996265
46 1 0.433852 0.189403 0.00197498
56 1 0.6298 0.190063 0.060646
58 1 0.811036 0.188712 0.001965
62 1 0.937059 0.187319 0.998772
65 1 -0.00208404 0.246784 0.00407051
73 1 0.255619 0.244065 0.999535
77 1 0.374954 0.249293 0.994701
81 1 0.503222 0.249439 0.998901
89 1 0.747781 0.247661 0.00180306
93 1 0.869928 0.250136 -0.00211111
66 1 0.0615959 0.308477 1.00089
70 1 0.187499 0.313706 1.00142
74 1 0.311834 0.307215 0.00524475
78 1 0.431513 0.310894 0.994561
90 1 0.813218 0.315419 0.994726
94 1 0.939321 0.314368 0.00214683
101 1 0.125084 0.372208 0.00293152
111 1 0.433169 0.374288 0.0593111
113 1 0.499819 0.368188 0.998293
117 1 0.63012 0.373088 -0.000839487
121 1 0.749276 0.375165 0.00484653
125 1 0.874227 0.374532 0.00269787
97 1 0.00321634 0.372806 0.00686289
102 1 0.189114 0.431271 0.00343926
106 1 0.307796 0.433283 0.00291185
114 1 0.563962 0.437995 0.00802039
118 1 0.687762 0.437697 -0.000245166
122 1 0.810254 0.435446 0.00257244
126 1 0.944193 0.43385 0.00319672
141 1 0.377726 0.49973 0.999771
147 1 0.55488 0.501668 0.059344
153 1 0.750805 0.501992 0.00448554
157 1 0.867408 0.493849 0.00629858
130 1 0.0599171 0.564247 -0.000358385
138 1 0.308086 0.565308 0.998048
142 1 0.438316 0.557985 -0.00159453
146 1 0.555903 0.561848 0.99349
150 1 0.687392 0.56502 0.997784
154 1 0.808402 0.563361 -0.0022148
158 1 0.933354 0.559237 0.00538919
167 1 0.185034 0.630173 0.0588384
169 1 0.24624 0.628576 1.0028
177 1 0.496454 0.623824 0.00357961
181 1 0.619799 0.617776 0.996331
185 1 0.746997 0.625096 0.996334
161 1 1.00001 0.620452 0.996032
162 1 0.0588953 0.68915 0.9927
176 1 0.371725 0.68034 0.0625847
184 1 0.626731 0.695726 0.0603569
199 1 0.190387 0.75192 0.0630703
203 1 0.317647 0.751581 0.0598053
211 1 0.561188 0.746649 0.0611427
193 1 0.995797 0.749353 0.989437
196 1 0.999824 0.813473 0.0625162
194 1 0.0560957 0.809196 0.994909
210 1 0.559324 0.812721 0.00489342
216 1 0.625186 0.810173 0.0585918
214 1 0.687065 0.810281 0.996237
218 1 0.812504 0.808041 0.00220045
231 1 0.191077 0.880275 0.0630021
243 1 0.562491 0.877373 0.0620174
245 1 0.624552 0.87982 0.00351075
253 1 0.871581 0.87509 0.000616307
244 1 0.497656 0.937439 0.0607052
254 1 0.937404 0.932737 -0.000417771
236 1 0.251005 0.94209 0.0577529
3 1 0.0582882 0.996067 0.0614339
15 1 0.435073 0.00403686 0.0615144
19 1 0.557557 0.00342879 0.0641736
23 1 0.686701 0.999504 0.066063
4 1 0.00445573 0.0567471 0.0626023
8 1 0.120839 0.0671168 0.067004
12 1 0.253516 0.0650377 0.0627425
24 1 0.622779 0.0646763 0.0644004
28 1 0.745818 0.0584892 0.0606305
32 1 0.874597 0.0647119 0.0592262
35 1 0.0592501 0.125693 0.0654633
39 1 0.190344 0.126065 0.065877
43 1 0.314639 0.127197 0.0604609
47 1 0.434109 0.124078 0.0656517
51 1 0.564941 0.132837 0.0669648
55 1 0.686587 0.128023 0.0593963
59 1 0.805483 0.122712 0.0647646
63 1 0.934321 0.124903 0.0593204
40 1 0.127842 0.180869 0.0667141
44 1 0.249878 0.182769 0.0645701
48 1 0.37549 0.188811 0.0591024
52 1 0.500151 0.185043 0.0602927
60 1 0.751065 0.188253 0.060413
64 1 0.875444 0.188214 0.0665428
36 1 0.996532 0.186694 0.0675368
67 1 0.0726882 0.24762 0.0649791
71 1 0.192364 0.249776 0.0689998
75 1 0.31758 0.246747 0.0678966
79 1 0.434506 0.252428 0.054322
83 1 0.56354 0.246912 0.0597288
87 1 0.691505 0.248472 0.0671957
91 1 0.813303 0.247929 0.0630062
95 1 0.936788 0.245575 0.0655837
72 1 0.133222 0.309427 0.0653294
76 1 0.251242 0.310053 0.0689388
80 1 0.370862 0.312854 0.0658689
84 1 0.493286 0.30871 0.0590345
88 1 0.624759 0.314819 0.0588148
92 1 0.750495 0.310183 0.0603262
96 1 0.878264 0.311971 0.0609259
68 1 0.00501176 0.30839 0.0673079
99 1 0.0688213 0.367738 0.0621652
103 1 0.191189 0.376406 0.0664516
107 1 0.311042 0.375657 0.0646641
115 1 0.558531 0.37284 0.0629675
119 1 0.687707 0.372894 0.0633971
123 1 0.81271 0.370473 0.0598696
127 1 0.937688 0.376559 0.0645495
104 1 0.124585 0.435681 0.0700368
108 1 0.249705 0.436602 0.0642482
112 1 0.369329 0.442693 0.0632307
116 1 0.496018 0.43869 0.0584441
120 1 0.623039 0.436905 0.0635477
124 1 0.746327 0.439084 0.065096
128 1 0.872713 0.437811 0.0640174
100 1 0.00179409 0.438657 0.0625436
131 1 0.0616275 0.502668 0.0579503
135 1 0.19136 0.495747 0.0614992
139 1 0.310275 0.502548 0.0582053
143 1 0.438353 0.499246 0.062854
151 1 0.682425 0.505322 0.0600123
155 1 0.811573 0.497073 0.0702142
159 1 0.934168 0.500011 0.0640173
136 1 0.12943 0.56608 0.0533707
140 1 0.246222 0.561867 0.0559347
144 1 0.38009 0.559311 0.0626584
148 1 0.498232 0.563857 0.0646274
152 1 0.624141 0.565822 0.064456
156 1 0.745077 0.563364 0.0649593
160 1 0.868923 0.557043 0.0614888
132 1 0.997645 0.559484 0.0605453
163 1 0.0599262 0.630874 0.0579016
171 1 0.311434 0.618945 0.0682738
175 1 0.43625 0.625262 0.0641906
179 1 0.560779 0.625828 0.0570722
183 1 0.683384 0.625087 0.0626017
187 1 0.807099 0.625044 0.0623174
191 1 0.936362 0.62034 0.0603316
168 1 0.126058 0.691689 0.0628958
172 1 0.254122 0.684728 0.0655298
180 1 0.501855 0.68721 0.0553562
188 1 0.750975 0.68599 0.0626666
192 1 0.874879 0.682203 0.064358
164 1 0.996287 0.689204 0.0568773
195 1 0.0593229 0.750359 0.0578006
207 1 0.437553 0.74332 0.0638461
465 1 0.495528 0.744523 0.125218
215 1 0.689466 0.744141 0.0604099
219 1 0.815003 0.747919 0.065341
223 1 0.936176 0.752485 0.0616987
200 1 0.127979 0.815486 0.0652135
454 1 0.191628 0.815602 0.121878
204 1 0.253536 0.815137 0.0613949
208 1 0.374466 0.816479 0.0610661
212 1 0.494218 0.80653 0.0663805
220 1 0.751701 0.808435 0.0605685
224 1 0.87317 0.819667 0.0597596
227 1 0.0602596 0.868689 0.058088
235 1 0.318517 0.877428 0.0661445
239 1 0.437626 0.869893 0.0621453
497 1 0.497309 0.872435 0.124837
247 1 0.689482 0.870659 0.0566607
251 1 0.811168 0.874414 0.0634629
255 1 0.938752 0.87285 0.0613309
232 1 0.121364 0.937997 0.0660868
240 1 0.38371 0.937443 0.0639673
248 1 0.623844 0.944177 0.0624172
256 1 0.873359 0.941314 0.057264
228 1 0.00187407 0.932891 0.0624622
7 1 0.179642 0.998182 0.0582792
11 1 0.308559 0.000543079 0.0586763
252 1 0.747785 0.935363 0.0604456
27 1 0.81255 0.00313616 0.060807
31 1 0.93671 0.00321889 0.0569433
262 1 0.18692 0.063021 0.126516
269 1 0.374152 0.000872039 0.126169
273 1 0.500945 0.00797218 0.126572
277 1 0.6237 0.00135332 0.123984
282 1 0.809294 0.0638364 0.121226
257 1 0.998385 0.99736 0.12051
258 1 0.0585453 0.0626504 0.128685
266 1 0.308591 0.0585362 0.125831
270 1 0.437224 0.0629951 0.127281
274 1 0.561958 0.0640677 0.125146
278 1 0.685934 0.0616611 0.123052
286 1 0.938541 0.0625073 0.118447
289 1 0.993365 0.12541 0.126353
293 1 0.124341 0.123244 0.127221
297 1 0.248769 0.123121 0.123951
301 1 0.369121 0.118538 0.127121
305 1 0.49617 0.123249 0.130831
309 1 0.626036 0.130768 0.123279
313 1 0.743223 0.120881 0.122632
317 1 0.870749 0.117907 0.123135
290 1 0.0616192 0.182417 0.126881
294 1 0.192222 0.185631 0.126576
298 1 0.309199 0.182799 0.127371
302 1 0.44042 0.188688 0.118768
306 1 0.559155 0.19642 0.129817
310 1 0.689647 0.186937 0.125308
314 1 0.804766 0.184691 0.126844
318 1 0.93478 0.187314 0.124847
321 1 0.00239951 0.248135 0.127172
325 1 0.125021 0.247916 0.128358
329 1 0.253892 0.245642 0.127297
333 1 0.38175 0.250025 0.126466
337 1 0.498216 0.253193 0.120092
341 1 0.626752 0.249078 0.124794
345 1 0.748655 0.250953 0.12793
349 1 0.871046 0.247204 0.130533
322 1 0.0693035 0.309933 0.12543
326 1 0.191073 0.316847 0.12541
330 1 0.313662 0.313547 0.127887
334 1 0.437399 0.316561 0.120081
338 1 0.563975 0.309133 0.117846
342 1 0.691638 0.310727 0.125773
346 1 0.814901 0.308121 0.125519
350 1 0.94072 0.305448 0.129315
357 1 0.1284 0.372953 0.126756
361 1 0.253615 0.374113 0.12548
365 1 0.369038 0.376802 0.125082
369 1 0.492556 0.377724 0.117866
373 1 0.623586 0.37467 0.119786
377 1 0.747197 0.378975 0.124554
381 1 0.876981 0.373748 0.124929
353 1 0.00639048 0.373079 0.120954
354 1 0.0648304 0.432184 0.125355
358 1 0.19231 0.442272 0.126254
362 1 0.314815 0.442876 0.121998
366 1 0.433738 0.435024 0.122056
370 1 0.55387 0.438788 0.123928
374 1 0.683292 0.437466 0.126369
378 1 0.814049 0.429854 0.123652
382 1 0.940872 0.434938 0.123246
385 1 0.996502 0.497801 0.125782
389 1 0.125098 0.501933 0.12192
393 1 0.2492 0.504011 0.122151
397 1 0.377035 0.502923 0.124738
401 1 0.496829 0.498103 0.126432
405 1 0.619177 0.498474 0.120131
409 1 0.745711 0.497671 0.123689
413 1 0.875961 0.499915 0.126641
386 1 0.0690097 0.564133 0.118348
390 1 0.185742 0.567952 0.118321
394 1 0.317344 0.558915 0.125668
398 1 0.434268 0.568471 0.129138
402 1 0.559482 0.558784 0.122087
406 1 0.682562 0.562123 0.124393
410 1 0.807246 0.563994 0.121127
414 1 0.935516 0.557743 0.123787
421 1 0.121586 0.630672 0.123092
425 1 0.247259 0.626766 0.123036
429 1 0.369556 0.623159 0.129396
433 1 0.501263 0.625004 0.122526
437 1 0.618062 0.624505 0.12594
441 1 0.748795 0.622592 0.126191
445 1 0.874948 0.623097 0.128157
417 1 0.995462 0.624981 0.118764
418 1 0.0575654 0.688575 0.120604
422 1 0.186753 0.691664 0.12454
426 1 0.313362 0.691837 0.123139
430 1 0.432208 0.684005 0.128437
434 1 0.560915 0.691765 0.121525
438 1 0.687536 0.685847 0.123443
442 1 0.81254 0.682888 0.127456
446 1 0.93314 0.685923 0.123492
453 1 0.125867 0.754186 0.123966
457 1 0.253579 0.75941 0.126597
461 1 0.377255 0.748271 0.122691
469 1 0.61898 0.748116 0.126506
473 1 0.751649 0.750585 0.12201
477 1 0.875166 0.745813 0.123779
449 1 0.999545 0.750174 0.122835
450 1 0.0618651 0.805348 0.12155
458 1 0.315683 0.818387 0.128739
462 1 0.438356 0.811918 0.126079
466 1 0.565545 0.812476 0.116599
470 1 0.685467 0.815895 0.118739
474 1 0.809352 0.811053 0.125964
478 1 0.936254 0.811869 0.127706
481 1 0.993054 0.874749 0.125192
485 1 0.134042 0.871689 0.122705
493 1 0.376592 0.878147 0.127764
501 1 0.629426 0.877815 0.1162
505 1 0.746287 0.873399 0.121945
509 1 0.875059 0.877728 0.126242
482 1 0.0585475 0.930715 0.123381
486 1 0.185367 0.939586 0.122983
489 1 0.254657 0.880196 0.123618
490 1 0.315863 0.943609 0.119327
494 1 0.437389 0.937775 0.12634
498 1 0.558408 0.936147 0.125798
502 1 0.686292 0.937925 0.124793
506 1 0.812478 0.941034 0.12662
510 1 0.936574 0.940691 0.117616
261 1 0.122955 -0.00323254 0.125359
265 1 0.247047 1.0016 0.119989
281 1 0.751774 -0.0027371 0.121571
285 1 0.877123 0.00223094 0.116558
260 1 0.995484 0.0633769 0.183188
268 1 0.251388 0.0620719 0.191024
275 1 0.565931 0.993941 0.186675
284 1 0.748288 0.0589356 0.187804
264 1 0.123135 0.0604985 0.185556
272 1 0.373573 0.0635105 0.189994
276 1 0.50517 0.0625009 0.19391
280 1 0.62258 0.0601532 0.184062
288 1 0.873624 0.059769 0.184579
291 1 0.0580463 0.120867 0.187282
295 1 0.189159 0.124366 0.190375
299 1 0.309621 0.122366 0.190698
303 1 0.437416 0.1276 0.192327
307 1 0.559384 0.125941 0.187711
311 1 0.687755 0.122428 0.186577
315 1 0.808727 0.122275 0.189753
319 1 0.937434 0.124375 0.189227
292 1 0.998598 0.183712 0.189401
296 1 0.127289 0.186569 0.19055
300 1 0.251863 0.181363 0.191796
304 1 0.373089 0.186105 0.182274
308 1 0.498899 0.187869 0.18714
312 1 0.629848 0.188687 0.183961
316 1 0.74641 0.184122 0.192042
320 1 0.869083 0.182436 0.196346
323 1 0.0683365 0.247816 0.189698
327 1 0.190833 0.249178 0.188075
331 1 0.315536 0.248129 0.181776
335 1 0.444429 0.250342 0.189516
339 1 0.567897 0.251193 0.188363
343 1 0.684163 0.255935 0.184385
347 1 0.807178 0.247625 0.188546
351 1 0.934896 0.24903 0.193363
328 1 0.127964 0.312644 0.190845
332 1 0.252121 0.308795 0.183414
336 1 0.381775 0.308223 0.191032
340 1 0.502234 0.313613 0.186966
344 1 0.623568 0.314604 0.180507
348 1 0.755903 0.313668 0.189114
352 1 0.875865 0.311044 0.187675
324 1 0.00873712 0.306514 0.188624
355 1 0.067319 0.373799 0.182964
359 1 0.184517 0.3748 0.189766
363 1 0.310365 0.374159 0.189129
367 1 0.436145 0.374715 0.187868
371 1 0.564774 0.376036 0.182347
375 1 0.688441 0.373192 0.185401
379 1 0.818046 0.371802 0.190098
383 1 0.941568 0.366005 0.185576
356 1 0.00266051 0.428862 0.189345
360 1 0.12803 0.438462 0.188568
364 1 0.257844 0.435349 0.188438
368 1 0.369341 0.439005 0.186764
372 1 0.494617 0.437965 0.185504
376 1 0.625976 0.439009 0.188124
380 1 0.747349 0.438764 0.185591
384 1 0.873443 0.437778 0.189384
387 1 0.0637978 0.497357 0.180159
391 1 0.188538 0.50449 0.188094
395 1 0.309819 0.499229 0.183036
399 1 0.435626 0.502353 0.186301
403 1 0.561451 0.496622 0.189989
407 1 0.685147 0.498083 0.187096
411 1 0.81382 0.498702 0.186411
415 1 0.939213 0.49425 0.189739
392 1 0.131387 0.563153 0.181448
396 1 0.254279 0.564858 0.189312
400 1 0.37652 0.560456 0.190512
404 1 0.496042 0.55897 0.188004
408 1 0.623925 0.558113 0.183341
412 1 0.752779 0.56399 0.188645
416 1 0.872384 0.561048 0.189773
388 1 0.00341937 0.56174 0.184683
419 1 0.0587228 0.626696 0.181355
423 1 0.192924 0.620845 0.186128
427 1 0.312943 0.623005 0.191848
431 1 0.431714 0.628469 0.189942
435 1 0.557011 0.618211 0.187907
439 1 0.688083 0.621512 0.18632
443 1 0.809956 0.623958 0.190268
447 1 0.938151 0.627027 0.184272
424 1 0.134616 0.695478 0.188488
428 1 0.24939 0.686602 0.190767
432 1 0.371577 0.690852 0.192192
436 1 0.49802 0.679551 0.185349
440 1 0.63286 0.681688 0.18822
444 1 0.75178 0.687938 0.184482
448 1 0.872613 0.689186 0.18476
420 1 0.999206 0.686231 0.185682
451 1 0.0628988 0.752575 0.188142
455 1 0.197405 0.755243 0.186819
459 1 0.310344 0.751437 0.191323
463 1 0.43589 0.747692 0.186262
467 1 0.560312 0.750421 0.186299
471 1 0.690845 0.749845 0.18094
475 1 0.81509 0.750527 0.184369
479 1 0.938669 0.746412 0.184266
456 1 0.121811 0.813704 0.185895
460 1 0.25632 0.819352 0.187601
464 1 0.377638 0.815695 0.185931
468 1 0.507423 0.811219 0.187366
472 1 0.627849 0.808618 0.182956
476 1 0.75005 0.811961 0.184675
480 1 0.876838 0.812339 0.184705
452 1 0.996946 0.808931 0.188096
483 1 0.0594187 0.877305 0.183934
487 1 0.186322 0.883264 0.189006
491 1 0.320276 0.882969 0.189635
495 1 0.443326 0.871283 0.18908
499 1 0.568924 0.87193 0.177587
503 1 0.68661 0.870818 0.181067
507 1 0.80551 0.874143 0.186275
511 1 0.935061 0.879293 0.185147
484 1 0.997198 0.938036 0.183579
488 1 0.125172 0.935876 0.186547
492 1 0.249843 0.936241 0.188564
496 1 0.380967 0.944201 0.188155
500 1 0.49989 0.935975 0.182715
504 1 0.629161 0.931549 0.188347
508 1 0.747871 0.941945 0.186202
512 1 0.874138 0.937962 0.186505
259 1 0.0636527 0.992428 0.182227
263 1 0.189091 0.996486 0.186765
267 1 0.31678 0.998692 0.195058
271 1 0.440841 0.00112492 0.188768
279 1 0.685882 0.996999 0.185853
283 1 0.811955 0.00431614 0.184896
287 1 0.931718 0.000681973 0.183618
517 1 0.120975 0.998666 0.249226
522 1 0.311424 0.0598357 0.248802
529 1 0.50176 1.00312 0.252193
533 1 0.623461 0.997945 0.248621
534 1 0.684909 0.0614068 0.248996
513 1 -0.00157462 1.00038 0.244883
514 1 0.0576862 0.0589187 0.242848
518 1 0.186362 0.0599174 0.247493
526 1 0.43542 0.0618486 0.250763
530 1 0.56505 0.0629096 0.251017
538 1 0.814402 0.0596868 0.253224
542 1 0.934959 0.0620899 0.254177
549 1 0.12245 0.120982 0.245094
553 1 0.24911 0.12398 0.249267
557 1 0.372802 0.126702 0.250138
561 1 0.502418 0.125312 0.25163
565 1 0.625068 0.122189 0.246514
569 1 0.750168 0.12068 0.250641
573 1 0.877605 0.121693 0.251203
545 1 0.995327 0.122856 0.25233
546 1 0.0624334 0.189868 0.247164
550 1 0.186451 0.183548 0.249262
554 1 0.310269 0.185096 0.256666
558 1 0.438456 0.18775 0.254571
562 1 0.572578 0.193966 0.247101
566 1 0.685775 0.188709 0.25006
570 1 0.805705 0.186974 0.25071
574 1 0.937098 0.183189 0.252681
577 1 0.005151 0.249902 0.254286
581 1 0.128834 0.247964 0.251868
585 1 0.249667 0.251852 0.245885
589 1 0.370569 0.241607 0.250968
593 1 0.501239 0.249418 0.25252
597 1 0.631431 0.25385 0.244993
601 1 0.747215 0.251242 0.252697
605 1 0.869448 0.251639 0.250047
578 1 0.0655003 0.314337 0.249988
582 1 0.190511 0.314578 0.251609
586 1 0.318514 0.304348 0.247322
590 1 0.438981 0.307436 0.255075
594 1 0.563827 0.316304 0.251238
598 1 0.695293 0.31663 0.252155
602 1 0.812603 0.310789 0.250156
606 1 0.940805 0.310237 0.250822
613 1 0.123809 0.376668 0.246777
617 1 0.250297 0.378451 0.253246
621 1 0.371442 0.372516 0.251682
625 1 0.497884 0.372586 0.24812
629 1 0.627475 0.373869 0.246527
633 1 0.752991 0.380876 0.244299
637 1 0.879979 0.378666 0.249996
609 1 0.00483259 0.374002 0.250577
610 1 0.0684784 0.438308 0.246673
614 1 0.191442 0.440264 0.250396
618 1 0.314463 0.437774 0.26113
622 1 0.436465 0.439102 0.249441
626 1 0.565691 0.434223 0.247205
630 1 0.688426 0.438199 0.250874
634 1 0.820556 0.438053 0.249384
638 1 0.942639 0.435712 0.253389
645 1 0.122826 0.502399 0.25024
649 1 0.250511 0.504824 0.247782
653 1 0.379121 0.502819 0.252794
657 1 0.50368 0.494277 0.247652
661 1 0.623992 0.50299 0.250069
665 1 0.754886 0.489959 0.253051
669 1 0.880767 0.501036 0.250419
641 1 0.00152053 0.504104 0.245484
642 1 0.0667676 0.567941 0.247636
646 1 0.187888 0.564149 0.250928
650 1 0.319611 0.559501 0.245654
654 1 0.442799 0.56054 0.252522
658 1 0.558573 0.558219 0.248258
662 1 0.683422 0.563854 0.247317
666 1 0.808243 0.566098 0.254918
670 1 0.93745 0.560935 0.24791
673 1 -0.00151253 0.625834 0.244412
677 1 0.129093 0.631035 0.241184
681 1 0.25525 0.624261 0.258131
685 1 0.371321 0.62731 0.251298
689 1 0.500964 0.621999 0.249264
693 1 0.62644 0.625838 0.250353
697 1 0.748919 0.623992 0.251704
701 1 0.874186 0.621964 0.257968
674 1 0.0720197 0.692848 0.248774
678 1 0.192497 0.690378 0.254981
682 1 0.310258 0.692481 0.249518
686 1 0.444999 0.692866 0.250192
690 1 0.563719 0.686578 0.240841
694 1 0.691316 0.690302 0.243016
698 1 0.818302 0.683916 0.248189
702 1 0.931801 0.687211 0.248448
709 1 0.125782 0.755886 0.250442
713 1 0.247352 0.757419 0.249334
717 1 0.379408 0.749988 0.250094
721 1 0.504921 0.750047 0.247552
725 1 0.626939 0.747801 0.242012
729 1 0.750366 0.749917 0.245867
733 1 0.87634 0.755133 0.250389
705 1 0.994797 0.748378 0.247799
706 1 0.0622839 0.818812 0.245296
710 1 0.186347 0.820852 0.245278
714 1 0.316465 0.815865 0.250782
718 1 0.443004 0.806571 0.252003
722 1 0.567797 0.817149 0.242362
726 1 0.687422 0.810349 0.252415
730 1 0.811152 0.813685 0.251351
734 1 0.938976 0.817745 0.24363
741 1 0.121048 0.878698 0.252829
745 1 0.249388 0.876546 0.254635
749 1 0.382003 0.876574 0.253618
753 1 0.503174 0.87288 0.249335
757 1 0.631342 0.874337 0.245857
761 1 0.742322 0.875744 0.247696
765 1 0.870109 0.878503 0.247281
737 1 0.000990036 0.874227 0.254593
742 1 0.190574 0.937849 0.254899
746 1 0.313433 0.937345 0.254076
750 1 0.44008 0.94175 0.252647
754 1 0.559266 0.933793 0.242505
758 1 0.689135 0.938104 0.249466
762 1 0.810239 0.943541 0.249239
766 1 0.939619 0.934606 0.24937
738 1 0.0571597 0.937103 0.251498
521 1 0.246469 0.999918 0.248939
525 1 0.377251 0.997451 0.251874
537 1 0.748407 1.00373 0.252702
541 1 0.874569 0.00310828 0.254119
515 1 0.0586718 0.00454139 0.311624
519 1 0.186315 1.00109 0.310283
523 1 0.316475 0.00112568 0.312426
531 1 0.562038 0.999668 0.313148
539 1 0.814921 0.997436 0.314224
544 1 0.87538 0.0658617 0.315515
516 1 0.999629 0.0601334 0.309128
520 1 0.123476 0.0622998 0.312747
524 1 0.248386 0.0612496 0.313355
528 1 0.375041 0.0660827 0.313075
532 1 0.500082 0.0618588 0.309908
536 1 0.6215 0.0615793 0.312243
540 1 0.751831 0.0587644 0.313444
547 1 0.0569757 0.115363 0.305188
551 1 0.18844 0.120025 0.309938
555 1 0.308804 0.121353 0.310943
559 1 0.438837 0.12711 0.31183
563 1 0.572047 0.133295 0.31173
567 1 0.68406 0.121455 0.311881
571 1 0.810158 0.127235 0.309867
575 1 0.939068 0.125329 0.316159
548 1 0.001362 0.189194 0.315745
552 1 0.12513 0.182371 0.310347
556 1 0.246138 0.184852 0.314567
560 1 0.377016 0.188593 0.312435
564 1 0.500487 0.188531 0.311436
568 1 0.63326 0.192434 0.309468
572 1 0.747281 0.185109 0.315321
576 1 0.867577 0.190053 0.311986
579 1 0.0648209 0.246595 0.314346
583 1 0.186739 0.245521 0.31546
587 1 0.305034 0.250259 0.31934
591 1 0.437354 0.249311 0.313564
595 1 0.564211 0.254396 0.311606
599 1 0.690546 0.252418 0.313999
603 1 0.813488 0.252838 0.309467
607 1 0.939539 0.247271 0.311996
580 1 -0.000729113 0.309688 0.314281
584 1 0.125467 0.315369 0.315439
588 1 0.246634 0.308748 0.311307
592 1 0.372204 0.310968 0.31583
596 1 0.501809 0.312997 0.313321
600 1 0.627536 0.31367 0.31376
604 1 0.753533 0.310081 0.31415
608 1 0.879129 0.308245 0.314764
611 1 0.060676 0.369885 0.316976
615 1 0.187787 0.378076 0.309597
619 1 0.312348 0.368794 0.309449
623 1 0.438031 0.373417 0.315448
627 1 0.563748 0.372846 0.317962
631 1 0.688249 0.375143 0.308593
635 1 0.814811 0.373633 0.307839
639 1 0.94476 0.376441 0.311707
616 1 0.122796 0.434146 0.311198
620 1 0.251784 0.43989 0.319089
624 1 0.378039 0.437291 0.315567
628 1 0.502751 0.4321 0.312846
632 1 0.621439 0.440241 0.309825
636 1 0.751858 0.426893 0.317933
640 1 0.877997 0.43898 0.31072
612 1 0.00393333 0.436017 0.311418
643 1 0.0642303 0.503304 0.311075
647 1 0.178226 0.495458 0.317506
651 1 0.31308 0.504218 0.314927
655 1 0.442392 0.496463 0.309231
659 1 0.560902 0.495689 0.308397
663 1 0.687304 0.497633 0.313179
667 1 0.813048 0.494054 0.312491
671 1 0.945509 0.497725 0.30515
648 1 0.124919 0.563649 0.309029
652 1 0.248659 0.55791 0.313468
656 1 0.374754 0.56533 0.311473
660 1 0.500545 0.562533 0.309475
664 1 0.627343 0.56647 0.311021
668 1 0.746088 0.554493 0.305725
672 1 0.868467 0.556427 0.314012
644 1 0.00459622 0.57024 0.307507
675 1 0.0667543 0.627452 0.312361
679 1 0.183906 0.628807 0.312357
683 1 0.313686 0.627852 0.317455
687 1 0.435068 0.629438 0.313225
691 1 0.562301 0.628815 0.308298
695 1 0.684915 0.626691 0.312822
699 1 0.811717 0.627002 0.313605
703 1 0.940034 0.625121 0.314081
680 1 0.127327 0.694353 0.30981
684 1 0.248861 0.688199 0.30944
688 1 0.376009 0.689749 0.312247
692 1 0.50119 0.690181 0.307647
696 1 0.627313 0.69078 0.307098
700 1 0.748115 0.685108 0.312093
704 1 0.881628 0.687397 0.313751
676 1 0.00401579 0.685529 0.305573
707 1 0.0637723 0.758276 0.306932
711 1 0.188225 0.756094 0.31151
715 1 0.309173 0.75253 0.3092
719 1 0.439271 0.742888 0.318989
723 1 0.568232 0.749188 0.313117
727 1 0.688872 0.754787 0.310975
731 1 0.812189 0.746995 0.304944
735 1 0.941943 0.745843 0.310396
712 1 0.12553 0.816943 0.311866
716 1 0.245665 0.816423 0.313687
720 1 0.377938 0.811239 0.314419
724 1 0.506011 0.812412 0.312662
728 1 0.62805 0.813419 0.309008
732 1 0.750756 0.816078 0.307296
736 1 0.878424 0.803644 0.313323
708 1 1.00127 0.815113 0.314979
739 1 0.0631793 0.875903 0.31469
743 1 0.18704 0.877454 0.313385
747 1 0.310523 0.876543 0.316714
751 1 0.436463 0.875101 0.317908
755 1 0.56427 0.870589 0.313551
759 1 0.686006 0.874182 0.308613
763 1 0.815295 0.869902 0.313704
767 1 0.933138 0.872112 0.313138
740 1 -0.00325041 0.939417 0.312821
744 1 0.124113 0.941839 0.312851
748 1 0.250063 0.944304 0.317666
752 1 0.379811 0.935579 0.316344
756 1 0.504347 0.939256 0.312142
760 1 0.619364 0.936424 0.308212
764 1 0.75464 0.935584 0.315498
768 1 0.871325 0.938235 0.311842
527 1 0.441219 0.99927 0.315664
535 1 0.685615 0.993927 0.315797
543 1 0.934546 0.00292463 0.310045
769 1 0.997979 0.00221807 0.377659
777 1 0.251223 0.00104174 0.38085
786 1 0.566235 0.0659443 0.371227
770 1 0.0582112 0.0637742 0.3725
774 1 0.182096 0.0646711 0.380169
778 1 0.31577 0.0577973 0.378156
782 1 0.434153 0.0655027 0.374623
790 1 0.684138 0.0607635 0.381785
794 1 0.813266 0.0615167 0.377104
798 1 0.939471 0.0650789 0.372657
801 1 1.0032 0.131056 0.377219
805 1 0.119759 0.122509 0.37334
809 1 0.251854 0.117204 0.377881
813 1 0.375481 0.127486 0.37422
817 1 0.501438 0.129314 0.373384
821 1 0.627734 0.130747 0.375649
825 1 0.751135 0.121024 0.375572
829 1 0.877606 0.12993 0.376754
802 1 0.0663019 0.187663 0.379174
806 1 0.18481 0.186282 0.376388
810 1 0.314455 0.183009 0.376973
814 1 0.436822 0.188031 0.372106
818 1 0.566099 0.186052 0.374093
822 1 0.691599 0.187479 0.377638
826 1 0.808391 0.181565 0.375098
830 1 0.936783 0.19021 0.372254
833 1 0.00242061 0.252146 0.376145
837 1 0.125834 0.248968 0.379373
841 1 0.244463 0.249788 0.377393
845 1 0.374873 0.24613 0.374084
849 1 0.505144 0.249999 0.373719
853 1 0.625478 0.253627 0.377523
857 1 0.755191 0.252813 0.373916
861 1 0.875661 0.250874 0.370621
834 1 0.0656076 0.311541 0.376565
838 1 0.1822 0.308839 0.377483
842 1 0.313512 0.31035 0.37628
846 1 0.437239 0.308395 0.371403
850 1 0.564298 0.311525 0.37718
854 1 0.689684 0.309667 0.377266
858 1 0.813897 0.315023 0.373637
862 1 0.937536 0.310099 0.37664
865 1 -0.00191406 0.374346 0.378818
869 1 0.124352 0.376016 0.376046
873 1 0.250133 0.370316 0.370444
877 1 0.373128 0.371585 0.374952
881 1 0.498589 0.376853 0.37359
885 1 0.627996 0.374295 0.372294
889 1 0.751436 0.371428 0.375898
893 1 0.878076 0.377118 0.372536
866 1 0.0601097 0.438979 0.377499
870 1 0.181246 0.435731 0.379649
874 1 0.310734 0.432135 0.37702
878 1 0.440793 0.435904 0.376747
882 1 0.561969 0.43395 0.373968
886 1 0.688348 0.438471 0.377531
890 1 0.811337 0.432844 0.376243
894 1 0.936647 0.440353 0.371846
901 1 0.120332 0.493037 0.381522
905 1 0.250386 0.497543 0.377532
909 1 0.376045 0.502438 0.368574
913 1 0.501875 0.501333 0.370446
917 1 0.618862 0.499546 0.370518
921 1 0.748595 0.500019 0.375741
925 1 0.870903 0.500494 0.375983
897 1 0.00185901 0.503028 0.368023
898 1 0.0667486 0.563414 0.371767
902 1 0.182573 0.567063 0.371327
906 1 0.312076 0.562181 0.377528
910 1 0.436621 0.567584 0.371762
914 1 0.560985 0.564511 0.370908
918 1 0.690346 0.562627 0.380925
922 1 0.807165 0.56035 0.376592
926 1 0.933855 0.555278 0.367536
933 1 0.123062 0.63047 0.37509
937 1 0.24514 0.627365 0.368498
941 1 0.376073 0.623343 0.375972
945 1 0.500138 0.62692 0.372542
949 1 0.625951 0.623377 0.374073
953 1 0.749895 0.627735 0.378683
957 1 0.874646 0.628244 0.376512
929 1 0.00526477 0.627812 0.374078
930 1 0.0646136 0.689218 0.377889
934 1 0.189087 0.694841 0.368567
938 1 0.317781 0.690741 0.372837
942 1 0.439064 0.690793 0.381736
946 1 0.563611 0.688376 0.369386
950 1 0.691607 0.696286 0.373843
954 1 0.815184 0.686706 0.374767
958 1 0.942224 0.687196 0.373704
965 1 0.122311 0.752821 0.375097
969 1 0.248086 0.755924 0.372644
973 1 0.379285 0.754232 0.376859
977 1 0.504965 0.752606 0.376381
981 1 0.624655 0.751815 0.373622
985 1 0.752645 0.756236 0.370944
989 1 0.878924 0.747714 0.374799
961 1 1.00292 0.749797 0.372935
962 1 0.0626398 0.817885 0.377474
966 1 0.184206 0.814113 0.374049
970 1 0.310296 0.809977 0.37209
974 1 0.437972 0.814491 0.372462
978 1 0.567489 0.814008 0.372139
982 1 0.686618 0.813593 0.370591
986 1 0.82133 0.811871 0.376841
990 1 0.940914 0.809232 0.371306
993 1 1.00013 0.877477 0.374312
997 1 0.129203 0.880748 0.375603
1001 1 0.254977 0.876704 0.377154
1005 1 0.370076 0.87079 0.37847
1009 1 0.502954 0.874882 0.374144
1013 1 0.627945 0.8739 0.373397
1017 1 0.748277 0.869093 0.376556
1021 1 0.876876 0.88424 0.376689
998 1 0.187135 0.942014 0.378023
1002 1 0.315727 0.940932 0.373838
1006 1 0.437531 0.932203 0.377984
1010 1 0.565282 0.936402 0.371904
1014 1 0.690008 0.933048 0.376615
1018 1 0.811817 0.935928 0.381535
1022 1 0.943903 0.939201 0.376349
994 1 0.061408 0.939151 0.376373
773 1 0.125234 -1.54035e-05 0.381742
781 1 0.378956 0.997321 0.37776
785 1 0.503484 0.00620191 0.373357
789 1 0.623511 0.999475 0.374428
793 1 0.749913 0.0041994 0.379658
797 1 0.872883 1.00147 0.373249
771 1 0.0597808 0.998065 0.438959
779 1 0.318401 0.995225 0.437029
787 1 0.562121 0.00295722 0.439574
792 1 0.62169 0.0663271 0.439939
772 1 1.00085 0.0659688 0.436903
776 1 0.119576 0.0628181 0.436621
780 1 0.256553 0.061369 0.440852
784 1 0.378907 0.0572202 0.440511
788 1 0.498632 0.0652789 0.42983
796 1 0.752735 0.0638898 0.446547
800 1 0.876791 0.0654925 0.436825
803 1 0.0636439 0.128637 0.438547
807 1 0.185345 0.127507 0.438218
811 1 0.309495 0.123634 0.440355
815 1 0.436886 0.12369 0.442391
819 1 0.56602 0.125767 0.438391
823 1 0.685094 0.127046 0.438931
827 1 0.815937 0.127515 0.43916
831 1 0.937318 0.128871 0.437754
804 1 0.996772 0.190862 0.437342
808 1 0.124129 0.185053 0.440068
812 1 0.248971 0.185911 0.440374
816 1 0.372454 0.185687 0.437448
820 1 0.499462 0.18772 0.432635
824 1 0.624742 0.190132 0.440292
828 1 0.750852 0.189185 0.436307
832 1 0.876012 0.191483 0.440883
835 1 0.0632254 0.249137 0.436554
839 1 0.187019 0.247786 0.440093
843 1 0.310373 0.250052 0.435719
847 1 0.442522 0.251131 0.438706
851 1 0.560838 0.248759 0.438316
855 1 0.687813 0.252234 0.437723
859 1 0.817148 0.250422 0.434853
863 1 0.939054 0.249025 0.438021
836 1 0.99888 0.312655 0.443649
840 1 0.126618 0.307289 0.44171
844 1 0.249807 0.310524 0.436528
848 1 0.377948 0.3039 0.434627
852 1 0.502855 0.315155 0.439619
856 1 0.623085 0.310398 0.442293
860 1 0.750336 0.310455 0.434902
864 1 0.876138 0.314037 0.43481
867 1 0.0608434 0.374218 0.436612
871 1 0.183603 0.369932 0.434317
875 1 0.313186 0.37251 0.43688
879 1 0.43765 0.375139 0.439726
883 1 0.55919 0.376746 0.438169
887 1 0.686821 0.372924 0.434872
891 1 0.809498 0.371555 0.436261
895 1 0.933077 0.373025 0.438148
868 1 0.999672 0.435215 0.44048
872 1 0.122193 0.436738 0.446008
876 1 0.249658 0.427937 0.43388
880 1 0.372947 0.435527 0.434127
884 1 0.499226 0.439057 0.446056
888 1 0.618637 0.430849 0.43634
892 1 0.751908 0.433738 0.439428
896 1 0.871387 0.430542 0.441725
899 1 0.0553288 0.499086 0.435493
903 1 0.188091 0.498623 0.436149