ITEM: TIMESTEP
100000
ITEM: NUMBER OF ATOMS
2048
ITEM: BOX BOUNDS pp pp pp
0.0000000000000000e+00 1.2699208415745595e+01
0.0000000000000000e+00 1.2699208415745595e+01
0.0000000000000000e+00 1.2699208415745595e+01
ITEM: ATOMS id type xs ys zs
872 1 0.976853 0.957334 0.0554145
444 1 0.310259 0.0271175 0.023107
1189 1 0.326553 0.0431579 0.0987749
1491 1 0.526937 0.102748 0.93944
1629 1 0.59524 0.0409199 0.0299002
1647 1 0.673391 0.0826597 0.896059
360 1 0.929111 0.0247241 0.0259968
1518 1 0.0140526 0.026573 0.0273407
1837 1 0.230647 0.109658 0.0390491
1235 1 0.401811 0.0681902 0.00557224
351 1 0.535096 0.123701 0.0161676
596 1 0.608898 0.0967563 0.980336
1043 1 0.163689 0.161503 0.020968
1761 1 0.314766 0.110428 0.0342697
963 1 0.442878 0.133451 0.0382252
296 1 0.621279 0.191596 0.0501508
256 1 0.729152 0.132075 0.979961
1650 1 0.805523 0.138486 0.00526056
1574 1 0.991026 0.104626 0.0224769
195 1 0.0657854 0.0989269 0.0556812
2040 1 0.315294 0.198775 0.0182374
619 1 0.522066 0.185112 0.962294
1676 1 0.938019 0.134739 0.963833
663 1 0.126119 0.198378 0.0777985
1695 1 0.182401 0.229212 0.990425
1365 1 0.468971 0.209121 0.059237
498 1 0.552228 0.257514 0.0449104
58 1 0.673518 0.281767 0.982976
1418 1 0.8898 0.252252 0.991663
531 1 0.955874 0.185094 0.0241297
1275 1 0.107378 0.324786 0.116361
692 1 0.437383 0.259078 0.0149271
712 1 0.773976 0.375742 0.0182792
808 1 0.957269 0.289913 0.970383
650 1 0.0470493 0.330692 0.0746985
782 1 0.161034 0.28358 0.0788971
945 1 0.482834 0.282635 0.0826416
1296 1 0.00202614 0.349889 0.981449
579 1 0.0231912 0.433711 0.0130957
1295 1 0.213965 0.446165 0.0167711
1231 1 0.301688 0.416765 0.0112375
1795 1 0.443019 0.490434 0.988748
1529 1 0.537605 0.332161 0.0167471
1060 1 0.650001 0.396072 0.0643294
1873 1 0.779352 0.44325 0.986018
150 1 0.847321 0.350178 0.00255499
834 1 0.0810518 0.463266 0.967411
87 1 0.357121 0.408596 0.0708646
1651 1 0.498004 0.395201 0.0652442
536 1 0.96404 0.434598 0.95287
90 1 0.200224 0.523863 0.063523
2021 1 0.583052 0.480419 0.0354502
1027 1 0.83088 0.503438 0.0338038
493 1 0.859516 0.430817 0.0180157
205 1 0.0857149 0.572961 0.0711869
555 1 0.48499 0.541689 0.942348
940 1 0.680299 0.557364 0.0131316
304 1 0.847806 0.589948 0.998597
1215 1 0.89988 0.508841 0.995612
1859 1 0.197447 0.597596 0.0784128
571 1 0.325889 0.576941 0.00571017
1933 1 0.465447 0.586029 0.0510892
1803 1 0.616569 0.602491 0.983631
1488 1 0.826797 0.658434 0.0319443
1222 1 0.902759 0.61361 0.064015
164 1 0.241195 0.626677 0.026604
216 1 0.453256 0.637005 0.974903
1131 1 0.532078 0.631598 0.992912
387 1 0.577789 0.687543 0.0324669
1490 1 0.650893 0.65826 0.0168371
388 1 0.97477 0.617581 0.0217149
1261 1 0.220441 0.719808 0.9846
951 1 0.263394 0.741469 0.116993
1198 1 0.309569 0.7093 0.0618795
252 1 0.388921 0.63156 0.0272908
1417 1 0.455222 0.668267 0.0509497
1274 1 0.818248 0.726522 0.0911489
445 1 0.96478 0.695233 0.0177034
563 1 0.148147 0.736524 0.00970415
1384 1 0.171086 0.816517 0.00831941
937 1 0.222565 0.7694 0.0494953
745 1 0.313144 0.739384 0.96505
803 1 0.640982 0.723995 0.0707984
1963 1 0.948981 0.7808 0.0221299
1776 1 0.118099 0.875724 0.975623
827 1 0.141398 0.878515 0.0553922
1174 1 0.32806 0.86201 0.0292106
1662 1 0.460192 0.810774 0.0542496
2007 1 0.700677 0.814835 -0.000881911
697 1 0.871155 0.847556 0.0526891
1325 1 0.21772 0.895756 0.0730746
1694 1 0.536664 0.902927 0.0364929
726 1 0.164765 0.939413 0.0141005
1878 1 0.398199 0.910602 0.973957
861 1 0.483965 0.922387 0.971819
163 1 0.603599 0.930256 0.053646
1108 1 0.789696 0.865463 1.00325
1217 1 0.888874 0.913865 0.00866865
1532 1 0.929806 0.900966 0.0767911
819 1 0.0886258 0.946014 0.00333036
1478 1 0.180217 0.00465238 0.0565211
495 1 0.255886 0.971014 0.0316177
1064 1 0.379521 0.00628435 0.0477369
905 1 0.454319 0.976976 0.0170898
1452 1 0.530661 0.981381 0.0234331
1169 1 0.89563 0.064613 0.0950708
23 1 0.885732 0.981466 0.0658503
974 1 0.102178 0.0108974 0.0547242
1625 1 0.203117 0.0374039 0.14892
452 1 0.45772 0.0635036 0.0679263
687 1 0.243341 0.0438299 0.0839363
1127 1 0.676548 0.127176 0.0369352
1091 1 0.741508 0.117241 0.104322
223 1 0.911278 0.106686 0.0322525
1083 1 0.967737 0.0853191 0.0967743
1710 1 0.034046 0.116908 0.121141
466 1 0.137947 0.0833627 0.0801522
1099 1 0.345133 0.188005 0.114206
497 1 0.48627 0.0607478 0.996262
242 1 0.858283 0.135266 0.0880854
377 1 0.103123 0.146015 0.151846
1300 1 0.238643 0.189389 0.0702981
1104 1 0.338778 0.252148 0.0691033
454 1 0.687864 0.197993 0.0955377
1246 1 0.928511 0.163616 0.0956678
1128 1 0.0811915 0.258334 0.0532076
238 1 0.0601124 0.209904 0.173356
453 1 0.264994 0.261881 0.0289346
1508 1 0.391116 0.196129 0.0507266
1960 1 0.624234 0.28349 0.0489035
1457 1 0.766468 0.288265 0.096192
1691 1 0.226098 0.316632 0.0764817
618 1 0.423679 0.20402 0.120385
125 1 0.498174 0.213774 0.129623
1201 1 0.56788 0.27795 0.135215
1025 1 0.911906 0.236599 0.0626969
1207 1 0.17779 0.369433 0.0996005
1078 1 0.300615 0.342976 0.0623586
1755 1 0.382931 0.339827 0.0277201
863 1 0.462874 0.33681 0.0109761
1015 1 0.541489 0.343289 0.106235
440 1 0.694014 0.331013 0.0616234
1497 1 0.839235 0.293732 0.0646966
383 1 0.917267 0.339413 0.0352441
780 1 0.241428 0.372489 0.00582227
1424 1 0.248216 0.413138 0.0850537
1705 1 0.441384 0.356084 0.0987827
932 1 0.723454 0.406502 0.0689975
1876 1 0.996935 0.387647 0.0803245
1269 1 0.00833496 0.451672 0.124183
1751 1 0.124098 0.522005 0.019378
140 1 0.332749 0.480811 0.0880974
1154 1 0.4279 0.437435 0.0485607
930 1 0.578541 0.409062 0.0817904
1281 1 0.687656 0.452213 0.987928
1796 1 0.79233 0.524821 0.123166
389 1 0.931147 0.412608 0.0246253
5 1 0.97285 0.470758 0.0557514
1432 1 0.0814775 0.46231 0.0547291
1386 1 0.190003 0.473885 0.136824
1094 1 0.440173 0.513653 0.0693906
147 1 0.530938 0.54633 0.039167
1523 1 0.57309 0.536485 0.102
703 1 0.680321 0.478083 0.0620697
178 1 0.751849 0.490065 0.0370881
1962 1 0.889408 0.479894 0.0719032
358 1 0.156713 0.609652 0.161904
1477 1 0.269485 0.567004 0.0648526
1037 1 0.72329 0.573319 0.0892896
494 1 0.797302 0.5732 0.060107
146 1 0.867382 0.546598 0.10731
562 1 0.0277294 0.620966 0.0949145
1061 1 0.228729 0.677526 0.0863563
787 1 0.368666 0.536308 0.0528788
1794 1 0.534465 0.623157 0.134583
1277 1 0.613657 0.590844 0.0636152
128 1 0.940213 0.5431 0.0527392
1601 1 0.960437 0.659572 0.0871683
1028 1 0.0243668 0.703153 0.0791109
1880 1 0.0962585 0.686494 0.0567522
1093 1 0.325006 0.626182 0.0763117
37 1 0.598119 0.662364 0.100147
127 1 0.684803 0.653086 0.0954489
1953 1 0.832803 0.636133 0.107065
2029 1 0.759943 0.699539 0.148227
181 1 0.895712 0.707008 0.0770808
124 1 0.0844868 0.814321 0.0310739
1262 1 0.163303 0.720896 0.0847511
1311 1 0.346847 0.73852 0.128499
971 1 0.515614 0.696636 0.0884003
895 1 0.508436 0.724255 0.0124316
1998 1 0.738405 0.748858 0.0867866
894 1 0.874137 0.723299 0.154405
280 1 0.961493 0.752507 0.0923244
1652 1 0.0311358 0.795666 0.0853654
1604 1 0.287548 0.816641 0.081288
541 1 0.344486 0.767091 0.0313995
1732 1 0.527971 0.772784 0.0945369
629 1 0.586323 0.764699 0.0363755
1430 1 0.797278 0.81125 0.0605758
330 1 0.131871 0.942073 0.0932158
1557 1 0.37463 0.878909 0.0886204
1987 1 0.399552 0.838241 0.0164485
849 1 0.660965 0.814739 0.0698458
723 1 0.688346 0.769763 0.145168
1628 1 0.852427 0.919883 0.0996942
891 1 0.00774338 0.892124 0.0789369
24 1 0.0551037 0.952573 0.0717787
1278 1 0.214442 0.962637 0.108512
1633 1 0.28958 0.88945 0.105882
1073 1 0.333633 0.943179 0.061614
603 1 0.456004 0.886849 0.0417007
1555 1 0.563423 0.85144 0.0885585
1421 1 0.669735 0.88873 0.0135254
1775 1 0.701909 0.972999 0.0624947
63 1 0.916751 0.94571 0.144414
870 1 0.0405664 0.0252011 0.109668
1554 1 0.419787 0.944175 0.0791468
1870 1 0.550221 0.936224 0.112712
1929 1 0.738096 0.919299 0.965119
817 1 0.798934 0.940647 0.0292925
654 1 0.132145 0.0125385 0.128675
1749 1 0.162618 0.102366 0.180543
1179 1 0.409161 0.0176506 0.120974
1176 1 0.48756 0.993309 0.0926843
1048 1 0.648758 0.0425041 0.162196
1831 1 0.750717 0.0688968 0.0225765
371 1 0.770253 0.0086467 0.0743041
1258 1 0.833373 0.00683146 0.133834
1788 1 0.9541 0.0174857 0.133599
80 1 0.995963 0.0701281 0.182535
1464 1 0.0843493 0.0637311 0.172359
554 1 0.346713 0.0885068 0.158171
168 1 0.453504 0.0945577 0.155045
1211 1 0.530552 0.0493246 0.0725786
978 1 0.190733 0.139776 0.11747
357 1 0.34674 0.215733 0.214269
2036 1 0.608934 0.0945012 0.0888842
1448 1 0.670303 0.123835 0.138458
449 1 0.925218 0.107586 0.161238
1777 1 0.983203 0.169943 0.174048
1830 1 0.0442168 0.125673 0.196223
308 1 0.193977 0.238472 0.136006
912 1 0.385289 0.107762 0.0839295
1394 1 0.565129 0.187473 0.193692
1579 1 0.797405 0.172933 0.10381
376 1 0.833396 0.208713 0.0348433
1699 1 0.907814 0.23288 0.180582
299 1 0.0380879 0.185092 0.085898
1891 1 0.118995 0.249807 0.138013
1147 1 0.249456 0.29122 0.150615
212 1 0.511718 0.122487 0.0968444
1362 1 0.54599 0.18679 0.0735755
254 1 0.688124 0.190235 0.184098
1693 1 0.0343772 0.266494 0.129524
1175 1 0.406341 0.282559 0.0827179
1411 1 0.506566 0.229907 0.215749
298 1 0.687513 0.2817 0.125795
996 1 0.824454 0.321192 0.1476
1801 1 0.975826 0.314648 0.12039
193 1 0.116779 0.335229 0.208914
1988 1 0.177856 0.320435 0.167059
1671 1 0.367366 0.337943 0.114446
540 1 0.512525 0.330312 0.17448
661 1 0.596665 0.402876 0.159009
1440 1 0.790583 0.369942 0.0961272
1526 1 0.798981 0.454082 0.0862165
753 1 0.0719353 0.400252 0.121587
1400 1 0.154323 0.446285 0.0744475
676 1 0.146929 0.400733 0.166279
391 1 0.244358 0.408896 0.165448
1558 1 0.866372 0.379445 0.0930508
1227 1 0.0802402 0.483088 0.134086
2028 1 0.728674 0.461343 0.124946
1741 1 0.779635 0.462037 0.18304
1469 1 0.930054 0.417888 0.1037
1363 1 0.139128 0.538908 0.11381
965 1 0.404596 0.495184 0.142304
809 1 0.465399 0.454877 0.110848
1888 1 0.776279 0.601821 0.147634
1272 1 0.859254 0.50903 0.177222
1183 1 0.931186 0.49758 0.219913
1858 1 0.021526 0.530019 0.0944377
1487 1 0.470779 0.567995 0.138496
17 1 0.645562 0.539928 0.122205
277 1 0.720279 0.571065 0.240155
1549 1 0.946905 0.506677 0.141713
420 1 0.222852 0.546733 0.138855
1502 1 0.57462 0.567379 0.17513
182 1 0.626343 0.625156 0.157771
1993 1 0.711453 0.627224 0.174572
1623 1 0.763082 0.641205 0.074403
1445 1 0.905826 0.641634 0.137179
807 1 0.953774 0.579923 0.11636
1926 1 0.0117448 0.596503 0.168563
1511 1 0.178993 0.686164 0.149377
580 1 0.290468 0.672282 0.129883
1897 1 0.402819 0.589975 0.0998704
1757 1 0.573961 0.688951 0.188872
1121 1 0.864139 0.654416 0.209368
1688 1 0.0315928 0.681315 0.158104
1109 1 0.0719437 0.746419 0.137629
1580 1 0.385003 0.70314 0.0407184
767 1 0.530066 0.746529 0.16901
1329 1 0.658272 0.700314 0.16106
1473 1 0.947181 0.705688 0.160458
170 1 0.218671 0.813765 0.115499
1812 1 0.602031 0.742514 0.133227
45 1 0.735203 0.867288 0.140196
677 1 0.0756639 0.874488 0.102615
397 1 0.154704 0.763168 0.146364
1752 1 0.288437 0.804922 0.153514
1779 1 0.39642 0.79872 0.112425
1618 1 0.445302 0.731715 0.10151
1610 1 0.642823 0.844012 0.139441
1970 1 0.956434 0.831401 0.0844966
28 1 0.144432 0.792515 0.0756667
470 1 0.239025 0.875242 0.166425
851 1 0.452302 0.847707 0.11802
1504 1 0.741707 0.895219 0.0562238
3 1 0.847527 0.944697 0.179639
1247 1 0.913166 0.797818 0.179998
359 1 0.977593 0.854746 0.152042
1462 1 0.0648651 0.938148 0.146798
2000 1 0.160324 0.876711 0.126682
99 1 0.662462 0.903434 0.0962079
318 1 0.239633 0.968301 0.179861
1533 1 0.286702 0.981717 0.116119
1642 1 0.600527 1.00285 0.105234
1730 1 0.992371 0.939497 0.159266
1877 1 0.150369 0.949413 0.180795
2042 1 0.273389 0.0633326 0.170345
613 1 0.288791 0.00253535 0.228004
960 1 0.464849 0.00496368 0.180475
1648 1 0.535226 0.0481893 0.170014
1818 1 0.691241 0.0500934 0.100296
270 1 0.949796 0.974882 0.214467
599 1 0.0355245 -0.00196927 0.188261
1895 1 0.392716 0.152698 0.187095
1047 1 0.829081 0.0861542 0.151549
235 1 0.936545 0.0726133 0.23248
196 1 0.984231 0.14701 0.243887
34 1 0.270789 0.133722 0.116814
758 1 0.44924 0.122329 0.248836
1525 1 0.60559 0.0978192 0.185347
1899 1 0.700894 0.0840506 0.197099
1948 1 0.762105 0.159393 0.183404
548 1 0.156156 0.192878 0.187736
1516 1 0.598698 0.193157 0.126164
1170 1 0.861274 0.172467 0.156963
1825 1 0.95765 0.235596 0.122857
501 1 0.0446451 0.309091 0.218914
672 1 0.224625 0.155572 0.185619
92 1 0.32922 0.272659 0.140281
1467 1 0.471019 0.165055 0.188082
933 1 0.85809 0.240454 0.120421
343 1 0.0159164 0.364884 0.166736
549 1 0.109232 0.260644 0.228622
191 1 0.189814 0.270193 0.219861
952 1 0.439377 0.297358 0.148578
261 1 0.631523 0.245248 0.172858
136 1 0.68513 0.28105 0.218791
832 1 0.896832 0.305532 0.121591
1141 1 0.243323 0.340028 0.211332
427 1 0.301585 0.347541 0.1604
1282 1 0.61713 0.316709 0.193111
1054 1 0.618743 0.336656 0.106102
328 1 0.747723 0.334575 0.151299
1242 1 0.89712 0.378601 0.187038
783 1 0.313339 0.420486 0.144055
311 1 0.512855 0.404536 0.146063
291 1 0.814903 0.391481 0.197633
544 1 0.959929 0.422789 0.200054
373 1 0.0769245 0.400806 0.210202
294 1 0.394256 0.419071 0.132465
537 1 0.553294 0.463263 0.131265
1750 1 0.793349 0.437968 0.255162
1185 1 0.852688 0.439612 0.143618
1088 1 0.18042 0.450424 0.21899
121 1 0.265335 0.483095 0.123786
1465 1 0.437781 0.505963 0.218179
1168 1 0.510462 0.512607 0.185055
545 1 0.613642 0.502613 0.190578
1224 1 0.716649 0.531536 0.155606
1355 1 0.806743 0.555676 0.202419
1990 1 0.865278 0.519141 0.254648
1132 1 0.168908 0.525583 0.191771
1594 1 0.173186 0.59995 0.248858
2041 1 0.339068 0.532327 0.143855
1239 1 0.896528 0.580175 0.177965
1299 1 0.0821234 0.564036 0.189444
1605 1 0.107832 0.665161 0.127603
648 1 0.358236 0.619497 0.160854
329 1 0.377521 0.560863 0.212513
1255 1 0.649931 0.646336 0.247843
1890 1 0.22778 0.626843 0.144525
838 1 0.496408 0.658065 0.195902
224 1 0.630462 0.735395 0.222884
1522 1 0.805754 0.714419 0.206685
1008 1 0.956686 0.638254 0.207758
199 1 0.259836 0.727238 0.203289
165 1 0.380532 0.666627 0.108681
1345 1 0.464483 0.655663 0.126456
1797 1 0.713445 0.709672 0.215438
1186 1 0.833204 0.781455 0.173828
356 1 0.0567593 0.822198 0.158757
429 1 0.385113 0.78138 0.19009
108 1 0.460907 0.789693 0.164188
457 1 0.898729 0.726381 0.226974
1422 1 0.98855 0.776109 0.157355
1486 1 0.291891 0.827047 0.248519
22 1 0.517876 0.836064 0.168513
1672 1 0.768472 0.834578 0.207792
615 1 0.888627 0.859991 0.138901
738 1 0.869026 0.780071 0.104547
290 1 0.0965283 0.876468 0.18489
961 1 0.321986 0.883898 0.198515
1058 1 0.388124 0.857072 0.159745
1077 1 0.451014 0.852894 0.215215
333 1 0.0895439 0.940689 0.223633
1828 1 0.164333 0.866308 0.224337
1566 1 0.476323 0.917239 0.140214
1551 1 0.599559 0.90045 0.169835
794 1 0.338983 0.930615 0.145927
1404 1 0.348405 0.95307 0.278577
582 1 0.410255 0.949695 0.166883
1351 1 0.628956 0.974938 0.186716
1991 1 0.697412 0.959884 0.13661
1536 1 0.786136 0.948324 0.130259
1483 1 0.92705 0.883936 0.203047
908 1 0.0976597 0.0138465 0.229083
1120 1 0.562842 0.0510317 0.266557
1905 1 0.890043 0.0280118 0.179143
1458 1 0.174323 0.131954 0.256995
793 1 0.223135 0.982058 0.274583
437 1 0.302178 0.104932 0.228407
1012 1 0.634135 0.04933 0.238954
860 1 0.762718 0.051497 0.138031
1049 1 0.960071 0.0247541 0.302823
96 1 0.107815 0.0978088 0.234656
1370 1 0.220667 0.0645528 0.251604
842 1 0.531915 0.108736 0.213875
1161 1 0.62712 0.163511 0.239563
716 1 0.826232 0.169455 0.230652
200 1 0.866724 0.0973736 0.214797
1397 1 0.91481 0.164358 0.211192
994 1 0.0208708 0.227491 0.243047
1 1 0.0953454 0.174855 0.233937
1251 1 0.236286 0.161356 0.290595
1620 1 0.319735 0.169982 0.2694
1514 1 0.546383 0.171145 0.265164
207 1 0.761544 0.227644 0.14645
183 1 0.155289 0.211863 0.263833
1102 1 0.587286 0.242241 0.244075
133 1 0.759497 0.234377 0.237506
566 1 0.934037 0.300418 0.269205
1323 1 0.979918 0.280583 0.196614
649 1 0.252865 0.21508 0.232745
946 1 0.289046 0.19488 0.168228
669 1 0.374574 0.305475 0.194976
1415 1 0.456981 0.293274 0.231401
1627 1 0.613504 0.310377 0.279643
990 1 0.792247 0.32335 0.220836
628 1 0.898164 0.303841 0.198678
2043 1 0.0094528 0.37021 0.244526
637 1 0.0794446 0.330782 0.28048
1406 1 0.302935 0.285603 0.224997
33 1 0.435836 0.364256 0.188464
48 1 0.0805342 0.43914 0.28635
1872 1 0.176523 0.377106 0.239759
1659 1 0.323196 0.361031 0.235284
441 1 0.49715 0.390958 0.238133
1344 1 0.591938 0.373757 0.236477
1375 1 0.739904 0.491078 0.301546
26 1 0.00389095 0.455962 0.254671
1178 1 0.0952682 0.4789 0.209559
1716 1 0.189174 0.442699 0.306314
1010 1 0.303875 0.441348 0.214161
1565 1 0.382709 0.417107 0.211825
847 1 0.456179 0.4366 0.185878
1813 1 0.653064 0.455545 0.135803
1292 1 0.723289 0.409677 0.185291
1838 1 0.871105 0.438848 0.228487
1835 1 0.0103453 0.512946 0.188913
372 1 0.136943 0.4951 0.273434
684 1 0.231346 0.564813 0.21358
107 1 0.297981 0.519702 0.205253
1540 1 0.648902 0.422551 0.222813
15 1 0.719442 0.491202 0.219066
831 1 0.0306695 0.587692 0.240814
442 1 0.484122 0.581413 0.221628
123 1 0.566736 0.542824 0.255562
1347 1 0.66271 0.488103 0.27824
1256 1 0.958648 0.561153 0.261116
478 1 0.106313 0.624831 0.225179
1535 1 0.531881 0.622273 0.265398
36 1 0.649797 0.569904 0.20614
1381 1 0.770313 0.63159 0.220901
778 1 0.805084 0.652382 0.28718
1914 1 0.866261 0.595466 0.276366
1537 1 0.954971 0.639921 0.287643
347 1 0.0531533 0.683014 0.228202
896 1 0.121775 0.698834 0.19945
337 1 0.21461 0.659357 0.217568
309 1 0.412862 0.715836 0.170305
1758 1 0.426591 0.619035 0.192405
2006 1 0.701315 0.724352 0.289321
231 1 0.052716 0.764431 0.210748
1212 1 0.341906 0.692041 0.190776
1639 1 0.469955 0.733832 0.21704
1863 1 0.593795 0.799156 0.190264
1353 1 0.696964 0.794871 0.217425
1726 1 0.883468 0.676677 0.281864
1655 1 0.981269 0.718826 0.2309
1022 1 0.120395 0.803363 0.212073
1615 1 0.760141 0.792976 0.141183
1783 1 0.835291 0.872545 0.206673
1350 1 0.0584816 0.826268 0.267568
844 1 0.208668 0.80732 0.197321
2016 1 0.354687 0.807222 0.285255
584 1 0.391554 0.895908 0.245018
1438 1 0.645266 0.850354 0.228004
1163 1 0.975431 0.793804 0.244302
876 1 0.0221566 0.885364 0.21908
1263 1 0.2286 0.872305 0.282432
709 1 0.27609 0.928459 0.239269
1910 1 0.322308 0.876943 0.293865
1378 1 0.540965 0.896317 0.231442
1656 1 0.691859 0.900733 0.194962
279 1 0.819814 0.850126 0.120321
2045 1 0.882563 0.927003 0.253602
465 1 0.1688 0.925912 0.278665
1451 1 0.4028 0.919622 0.316775
1644 1 0.761645 0.927393 0.200368
2011 1 0.805595 0.921307 0.270209
674 1 0.963323 0.915969 0.263351
1848 1 0.057236 0.0222411 0.292486
904 1 0.175228 0.0149994 0.217987
285 1 0.463521 0.972689 0.252951
839 1 0.532704 0.973431 0.211722
1892 1 0.705797 0.00447133 0.199963
1941 1 0.825587 0.0231806 0.225848
1661 1 0.0321418 0.943135 0.280467
1039 1 0.289251 0.107573 0.317715
106 1 0.346249 0.0411595 0.274216
1499 1 0.399505 0.998472 0.310087
1066 1 0.571204 0.980252 0.27454
1856 1 0.665073 0.0249783 0.313729
1382 1 0.788737 0.0953895 0.219724
1401 1 0.887372 0.00894505 0.272312
459 1 0.1445 0.0282314 0.287649
1171 1 0.379004 0.102191 0.247498
458 1 0.609409 0.0877461 0.311493
1521 1 0.700687 0.100506 0.329017
2001 1 0.872121 0.1447 0.286132
609 1 0.0132448 0.0825927 0.262447
1791 1 0.0391253 0.166644 0.288585
1317 1 0.174541 0.110801 0.326104
1162 1 0.39484 0.177134 0.267401
630 1 0.762153 0.129226 0.283511
972 1 0.980093 0.145817 0.333733
578 1 0.307216 0.189439 0.349448
1718 1 0.479767 0.21469 0.280914
616 1 0.522859 0.167162 0.335751
1221 1 0.557923 0.234924 0.324521
1304 1 0.695501 0.1363 0.255778
158 1 0.800789 0.20263 0.297819
1538 1 0.83403 0.247064 0.199666
1992 1 0.986269 0.239458 0.308841
217 1 0.0665304 0.257399 0.292998
97 1 0.246323 0.142968 0.372097
511 1 0.320201 0.247884 0.301961
526 1 0.417401 0.239545 0.194252
1619 1 0.678952 0.235767 0.286388
1466 1 0.864464 0.333066 0.265666
503 1 0.114001 0.299275 0.366662
764 1 0.254521 0.329201 0.312222
734 1 0.539655 0.310545 0.24464
366 1 0.70277 0.305204 0.343829
962 1 0.865284 0.330847 0.349123
1989 1 0.924363 0.384148 0.262451
742 1 0.132308 0.389059 0.311853
1124 1 0.178441 0.313587 0.281771
1240 1 0.400822 0.344724 0.265802
244 1 0.672561 0.358411 0.160948
2032 1 0.790887 0.35703 0.293624
177 1 0.862296 0.408492 0.299665
362 1 0.24776 0.398579 0.269448
516 1 0.564171 0.358918 0.308228
1032 1 0.740896 0.395419 0.340893
153 1 0.927273 0.467337 0.294106
222 1 0.964329 0.402037 0.323858
871 1 0.129615 0.473243 0.346446
430 1 0.236067 0.495018 0.263296
1496 1 0.568569 0.442922 0.220186
523 1 0.0655729 0.520674 0.288851
1632 1 0.200962 0.51632 0.380606
1547 1 0.370073 0.489484 0.243816
704 1 0.773722 0.536537 0.365774
19 1 0.920683 0.578475 0.328379
317 1 0.988999 0.52113 0.32461
730 1 0.115236 0.568196 0.343241
471 1 0.321034 0.539147 0.281231
1886 1 0.788926 0.548426 0.283042
797 1 0.843534 0.516758 0.326489
1055 1 0.00848935 0.599197 0.323213
1431 1 0.191748 0.540295 0.302608
1823 1 0.285272 0.633632 0.230702
995 1 0.348659 0.657145 0.381084
1286 1 0.455992 0.652066 0.261312
739 1 0.6524 0.579213 0.295761
1297 1 0.715476 0.633623 0.282703
1236 1 0.0164745 0.690102 0.293448
1301 1 0.128538 0.694033 0.274679
253 1 0.28852 0.589227 0.165744
1270 1 0.811002 0.598805 0.343165
1130 1 0.961246 0.651555 0.361735
1387 1 0.949223 0.741799 0.292856
1501 1 0.0920735 0.768358 0.303767
1070 1 0.229963 0.684318 0.292706
355 1 0.309641 0.723756 0.257273
1119 1 0.347586 0.743189 0.332536
690 1 0.550462 0.73204 0.263719
602 1 0.599849 0.635847 0.305461
816 1 0.767356 0.765052 0.255095
186 1 0.183761 0.737035 0.235397
1137 1 0.297493 0.793619 0.359921
423 1 0.392552 0.735891 0.255127
1035 1 0.692156 0.765161 0.363211
1079 1 0.866915 0.819919 0.369969
1225 1 0.85873 0.751114 0.305581
93 1 0.00626224 0.786956 0.316508
1453 1 0.274575 0.929406 0.322562
1117 1 0.498436 0.799565 0.243687
1191 1 0.716622 0.814447 0.297525
76 1 0.833907 0.856085 0.303561
1724 1 0.893084 0.843575 0.256127
484 1 0.106698 0.882143 0.280241
1089 1 0.211566 0.825774 0.345958
878 1 0.467864 0.898601 0.274906
570 1 0.614607 0.91496 0.256559
1994 1 0.827895 0.806714 0.247176
1429 1 0.992453 0.861553 0.314893
1760 1 0.0622831 0.875573 0.348438
1245 1 0.152559 0.887382 0.348758
1314 1 0.40221 0.0282082 0.211968
159 1 0.443714 0.968859 0.369027
823 1 0.732252 0.883033 0.257235
386 1 0.0214091 0.995415 0.363717
607 1 0.285283 0.0173172 0.311104
405 1 0.756539 0.979124 0.263998
1972 1 0.826686 0.075261 0.284491
777 1 0.338444 0.055566 0.353107
1517 1 0.424625 0.0428513 0.368411
1861 1 0.502987 0.0205423 0.302075
1932 1 0.734547 0.056668 0.259409
836 1 0.765716 0.0415623 0.329406
935 1 0.909206 0.0821833 0.322464
658 1 0.928979 0.00777333 0.386667
1253 1 0.0649253 0.0786166 0.342782
784 1 0.129971 0.0464562 0.366644
110 1 0.368622 0.13501 0.332563
598 1 0.427257 0.0717144 0.300212
1979 1 0.477016 0.0557365 0.231566
1719 1 0.654627 0.98491 0.38093
1348 1 0.109473 0.142532 0.301331
1966 1 0.684417 0.114514 0.409663
1423 1 0.969399 0.0797377 0.375629
1454 1 0.125848 0.144938 0.387778
906 1 0.178425 0.0866674 0.421797
89 1 0.379962 0.266863 0.261555
341 1 0.654679 0.177119 0.330867
29 1 0.892584 0.22882 0.344933
1879 1 0.893169 0.214041 0.419586
1743 1 0.338559 0.325816 0.302799
326 1 0.631583 0.270851 0.35538
741 1 0.744017 0.29897 0.27639
293 1 0.868367 0.23189 0.274079
1721 1 0.224335 0.232894 0.308539
1930 1 0.416126 0.28449 0.341845
1849 1 0.559646 0.29696 0.37241
1965 1 0.809549 0.280759 0.319321
1669 1 0.28936 0.380653 0.353509
42 1 0.750124 0.24358 0.349496
1709 1 0.791906 0.400689 0.411838
1009 1 0.863334 0.369766 0.416784
364 1 0.886763 0.431782 0.37706
576 1 0.00881075 0.313731 0.299138
1715 1 0.0341892 0.457412 0.351383
1977 1 0.206852 0.370518 0.356489
565 1 0.454361 0.360766 0.322213
859 1 0.516573 0.366134 0.373215
626 1 0.813317 0.448325 0.353197
874 1 0.25286 0.448305 0.351584
1586 1 0.321388 0.45398 0.287013
1357 1 0.512365 0.413945 0.316675
1463 1 0.638123 0.358561 0.334432
491 1 0.683128 0.349054 0.259383
2019 1 0.915327 0.515158 0.370098
688 1 0.960791 0.46013 0.377866
56 1 0.145128 0.523248 0.425954
779 1 0.43476 0.423148 0.269506
436 1 0.532088 0.489567 0.32161
44 1 0.599986 0.426513 0.299449
639 1 0.703017 0.422084 0.274453
230 1 0.258392 0.594393 0.290126
1729 1 0.32324 0.587501 0.34576
1568 1 0.398107 0.553356 0.287788
1717 1 0.506442 0.475474 0.254145
1968 1 0.601694 0.51033 0.326616
938 1 0.721748 0.601503 0.356001
101 1 0.80783 0.598303 0.416452
689 1 0.873378 0.579043 0.384538
1041 1 0.0223989 0.590561 0.416646
683 1 0.0725539 0.633774 0.290203
414 1 0.177569 0.598663 0.395175
79 1 0.461309 0.591594 0.309471
49 1 0.541344 0.585945 0.330914
825 1 0.883784 0.646569 0.355073
524 1 0.151967 0.635171 0.319319
1086 1 0.282625 0.655616 0.344885
369 1 0.510482 0.659788 0.328149
1005 1 0.602984 0.656958 0.403357
881 1 0.661124 0.652388 0.347381
1771 1 0.974357 0.734344 0.365852
927 1 0.23066 0.754843 0.370676
1268 1 0.449855 0.64462 0.371556
1343 1 0.361311 0.624872 0.270592
237 1 0.738551 0.697727 0.350339
705 1 0.813701 0.691168 0.350679
592 1 0.901938 0.718061 0.361955
1290 1 0.155137 0.744253 0.343268
713 1 0.228901 0.794057 0.276834
363 1 0.302594 0.724477 0.407359
1778 1 0.467816 0.718881 0.301114
1805 1 0.639065 0.787253 0.285864
1903 1 0.791904 0.772386 0.331094
1638 1 0.0539764 0.814763 0.395578
57 1 0.392239 0.676422 0.324368
1607 1 0.433266 0.799685 0.288128
533 1 0.580299 0.831514 0.257961
1187 1 0.631714 0.814258 0.358598
931 1 0.700691 0.843022 0.394404
334 1 0.936053 0.811168 0.34706
154 1 0.115068 0.882667 0.416073
1071 1 0.160604 0.825771 0.289788
732 1 0.384678 0.826326 0.350572
1731 1 0.487331 0.875661 0.347329
1446 1 0.910664 0.8785 0.322487
1164 1 0.339264 0.966038 0.352102
1596 1 0.409914 0.00166864 0.43513
16 1 0.515061 0.942127 0.313871
1806 1 0.806625 0.979548 0.331699
768 1 0.884128 0.955284 0.337915
116 1 0.105564 0.962653 0.305565
1909 1 0.179895 0.98897 0.338318
840 1 0.62995 0.943958 0.326332
858 1 0.970748 0.938884 0.344658
1559 1 0.0618124 0.0428692 0.417645
1196 1 0.220836 0.0525566 0.35557
1635 1 0.264905 0.939157 0.469919
903 1 0.568116 0.110969 0.37997
725 1 0.730865 0.961058 0.341398
1512 1 0.713694 0.0403421 0.392366
1254 1 0.989646 0.0368619 0.43321
1425 1 0.277179 0.0760623 0.39796
1013 1 0.393954 0.108651 0.404917
130 1 0.497881 0.071675 0.367014
1969 1 0.764334 0.100074 0.386639
1908 1 0.93427 0.188705 0.290595
733 1 0.041436 0.14855 0.392083
295 1 0.134198 0.164548 0.466108
6 1 0.421108 0.180536 0.397227
1728 1 0.44994 0.145645 0.322723
404 1 0.508063 0.0927682 0.29608
1971 1 0.629816 0.0670264 0.38189
785 1 0.96532 0.221 0.385848
2037 1 0.0322287 0.267861 0.366264
302 1 0.0160187 0.198525 0.445136
1552 1 0.330375 0.124501 0.443125
953 1 0.492995 0.155587 0.409308
1684 1 0.608767 0.201518 0.387919
162 1 0.751914 0.166017 0.347049
589 1 0.135114 0.231902 0.335436
944 1 0.187652 0.187611 0.364914
1955 1 0.530259 0.238785 0.40449
385 1 0.619255 0.23544 0.518037
1376 1 0.755127 0.335088 0.389314
2044 1 0.816488 0.278004 0.397119
1193 1 0.933662 0.28756 0.357592
542 1 0.0967396 0.212761 0.405668
20 1 0.333755 0.235503 0.402878
1098 1 0.471987 0.232824 0.356043
695 1 0.4993 0.285003 0.307665
1202 1 0.137164 0.281907 0.439889
701 1 0.18919 0.293473 0.359956
862 1 0.249068 0.254768 0.390479
1733 1 0.348699 0.308581 0.379141
272 1 0.38035 0.410047 0.321485
1692 1 0.451134 0.345046 0.406441
276 1 0.555944 0.346318 0.437511
968 1 0.0234012 0.337941 0.378601
1952 1 0.0779468 0.45307 0.431037
282 1 0.687323 0.36417 0.390707
1606 1 0.747287 0.468904 0.393436
1159 1 0.85236 0.445298 0.444115
233 1 0.173926 0.428243 0.393144
1441 1 0.336783 0.445703 0.376662
1920 1 0.419 0.440604 0.387415
1057 1 0.511094 0.440033 0.392926
1426 1 0.665872 0.434135 0.340978
1204 1 0.847538 0.507895 0.401765
1636 1 0.0559433 0.526428 0.3721
2047 1 0.270129 0.519989 0.343653
992 1 0.384023 0.506908 0.346608
1860 1 0.449897 0.491503 0.304475
693 1 0.58347 0.462841 0.388964
586 1 0.700104 0.514804 0.359369
1912 1 0.796851 0.55106 0.476659
1173 1 0.950293 0.590442 0.409354
1414 1 0.220771 0.470303 0.446608
474 1 0.285981 0.507906 0.41984
746 1 0.464178 0.524923 0.375285
255 1 0.101697 0.59 0.417723
1722 1 0.24838 0.592887 0.370675
1560 1 0.561791 0.539128 0.399877
1379 1 0.668085 0.638072 0.434235
1829 1 0.0534146 0.642193 0.373095
590 1 0.129528 0.65741 0.392542
1238 1 0.39815 0.590202 0.357981
1700 1 0.586932 0.594768 0.457131
321 1 0.743068 0.654136 0.417625
1482 1 0.814259 0.686375 0.431734
2023 1 0.993309 0.675878 0.422248
572 1 0.286156 0.659073 0.457002
2015 1 0.496324 0.764648 0.386389
1584 1 0.558985 0.739653 0.342676
1374 1 0.628488 0.715874 0.366665
632 1 0.71275 0.788705 0.463948
1160 1 0.913645 0.655606 0.428619
1847 1 0.359984 0.777814 0.408651
1759 1 0.421872 0.749254 0.363305
175 1 0.64096 0.775843 0.426336
1756 1 0.758066 0.782795 0.398839
1328 1 0.840541 0.756469 0.398841
271 1 0.0452167 0.748198 0.448039
145 1 0.134059 0.817586 0.363572
1056 1 0.323839 0.890114 0.383489
218 1 0.413596 0.902386 0.38792
41 1 0.525963 0.808822 0.328008
1698 1 0.771374 0.866142 0.412173
134 1 0.931428 0.823658 0.430449
247 1 0.995539 0.814098 0.466656
187 1 0.99917 0.866242 0.392789
1405 1 0.251677 0.90283 0.394772
1118 1 0.57003 0.88026 0.320691
450 1 0.662268 0.870255 0.314382
1562 1 0.761804 0.858478 0.337126
1321 1 0.839955 0.901682 0.36685
424 1 0.926589 0.907559 0.398997
447 1 0.181101 0.938722 0.404979
748 1 0.337217 0.939624 0.439466
8 1 0.683487 0.946756 0.257336
2022 1 0.981601 0.958933 0.425757
1881 1 0.106824 0.961045 0.382425
864 1 0.245844 0.984811 0.385876
303 1 0.558472 0.0123035 0.357373
1887 1 0.591393 0.953092 0.40432
843 1 0.691162 0.921973 0.389558
1218 1 0.858981 0.0315719 0.346334
314 1 0.840597 0.96724 0.410811
1585 1 0.139103 0.00665579 0.471266
1395 1 0.46957 0.0563362 0.448767
64 1 0.538402 0.0116165 0.432445
710 1 0.614069 0.0173134 0.462014
721 1 0.80804 0.043684 0.39914
1563 1 0.918689 0.0964394 0.480362
467 1 0.0973254 0.0873912 0.472729
310 1 0.171356 0.0897037 0.503507
1506 1 0.238539 0.102403 0.533133
431 1 0.287859 0.0632457 0.476269
841 1 0.527941 0.0997744 0.470182
1339 1 0.676415 0.0732152 0.478934
1038 1 0.829858 0.132688 0.351363
390 1 0.0474949 0.163735 0.509803