ITEM: TIMESTEP
100000
ITEM: NUMBER OF ATOMS
2048
ITEM: BOX BOUNDS pp pp pp
0.0000000000000000e+00 1.2302095357258066e+01
0.0000000000000000e+00 1.2302095357258066e+01
0.0000000000000000e+00 1.2302095357258066e+01
ITEM: ATOMS id type xs ys zs
623 1 0.197498 0.0359036 0.0474916
1679 1 0.292034 0.0281172 0.0506854
1246 1 0.287706 0.953212 0.0292906
1191 1 0.558018 0.993333 0.0310682
861 1 0.943617 0.0675374 0.0461886
1118 1 0.140043 0.116418 0.00701166
2010 1 0.370511 0.0869298 0.995385
1057 1 0.460585 0.0878931 0.977635
31 1 0.645053 0.0883821 0.984566
1421 1 0.867047 0.0607465 0.0633307
1260 1 0.0244803 0.0716893 0.9829
1802 1 0.159853 0.182372 0.974386
1088 1 0.292866 0.109149 0.0691534
1518 1 0.336114 0.169398 0.0179541
112 1 0.370749 0.214313 0.958432
32 1 0.588946 0.147055 0.0142629
1206 1 0.748548 0.0886434 0.0102104
1537 1 1.00223 0.154414 0.986485
108 1 0.11984 0.169214 0.0669434
640 1 0.224983 0.237936 0.0141893
1485 1 0.312027 0.225982 0.0681925
713 1 0.52711 0.119216 0.0509182
666 1 0.695879 0.238203 0.0149509
899 1 0.913492 0.178762 0.96305
1536 1 0.106759 0.233018 0.0154818
1698 1 0.169599 0.292929 0.00383158
687 1 0.287962 0.297784 0.0415323
1140 1 0.391181 0.23055 0.0373948
1300 1 0.626343 0.217801 0.0548103
1919 1 0.773604 0.199301 0.0337045
1581 1 0.812966 0.274962 0.0223752
1970 1 0.865319 0.211449 0.0465587
697 1 0.0863039 0.312448 0.0485319
1691 1 0.257958 0.365077 0.995409
1372 1 0.433505 0.298779 0.0388968
766 1 0.595442 0.333754 0.0390068
1030 1 0.740968 0.272694 0.0631002
1593 1 0.878591 0.356986 0.0444554
2043 1 0.956269 0.362527 0.997851
438 1 0.00909787 0.34771 0.052088
104 1 0.155822 0.425042 0.0221642
1921 1 0.361941 0.370433 0.0203247
1958 1 0.438867 0.377836 0.031017
1629 1 0.486144 0.429418 0.0675543
1861 1 0.522531 0.373628 0.0296562
830 1 0.811675 0.361245 0.00204272
1199 1 0.934069 0.425649 0.038291
1929 1 0.235058 0.424236 0.0463926
1375 1 0.395788 0.433394 0.0792663
2040 1 0.547622 0.449568 -0.00104164
1851 1 0.728845 0.354824 0.0704618
396 1 0.826028 0.499558 0.974555
1059 1 0.102764 0.477554 0.0363883
1196 1 0.320403 0.425174 0.0678809
938 1 0.636138 0.46969 0.0682884
492 1 0.752174 0.474607 0.954866
1935 1 0.201013 0.592654 0.0551599
1775 1 0.431436 0.561695 0.0365651
873 1 0.552856 0.552873 0.0162939
1762 1 0.779639 0.557946 -0.00208402
673 1 0.850928 0.587381 0.0278336
563 1 0.0295369 0.578615 0.0182191
1446 1 0.0563124 0.656378 0.986667
630 1 0.178576 0.592919 0.127414
813 1 0.434909 0.481279 0.0243683
685 1 0.615241 0.602997 0.0366916
1317 1 0.614827 0.498993 -0.00044537
1914 1 0.188539 0.669847 0.0167701
1505 1 0.268103 0.637928 -0.00110187
1484 1 0.518184 0.64008 0.978415
17 1 0.932657 0.681583 0.0140828
665 1 0.997757 0.704425 0.95778
967 1 0.149104 0.728679 0.10641
955 1 0.335143 0.691783 0.0419462
1942 1 0.48725 0.706566 0.0362104
462 1 0.634585 0.700544 0.983262
1137 1 0.704308 0.662703 -0.00059844
644 1 0.79297 0.701025 0.0343683
1722 1 0.881984 0.748906 0.0310446
575 1 0.254004 0.717241 0.00686806
464 1 0.401721 0.719649 0.992819
762 1 0.450104 0.778831 0.997706
225 1 0.812797 0.78726 0.00479475
321 1 0.912475 0.755425 0.944377
1533 1 0.10489 0.80009 0.0798311
1625 1 0.147285 0.751718 0.0322999
1371 1 0.223708 0.813316 0.00350229
1988 1 0.282046 0.792259 0.057753
849 1 0.673485 0.825451 0.0330723
1725 1 0.900157 0.818222 0.0652223
993 1 0.103022 0.837053 0.005932
1747 1 0.241871 0.884567 0.0319672
418 1 0.356856 0.879091 0.066198
303 1 0.426513 0.919757 0.0697711
123 1 0.447065 0.847152 0.036985
1982 1 0.780696 0.857198 0.0383411
135 1 0.0463706 0.989672 0.973611
1219 1 0.486038 0.965815 0.0534289
1220 1 0.607785 0.827507 0.0775098
1773 1 0.666713 0.907449 0.102988
342 1 0.833169 0.92761 0.0334235
308 1 0.902892 0.984937 0.0253156
458 1 0.184627 0.934041 0.0200345
197 1 0.414891 0.00725978 0.0362257
971 1 0.599802 0.940358 0.0808675
281 1 0.737943 0.0104399 0.0541492
1507 1 0.974738 0.00252822 1.00126
1641 1 0.179126 1.00284 0.154905
101 1 0.441903 0.0462115 0.113008
815 1 0.500848 0.0415391 0.0632429
600 1 0.580571 0.0131992 0.102939
1213 1 0.82405 0.999699 0.0912802
1709 1 0.0177446 0.0320125 0.0650458
285 1 0.0871584 0.0514636 0.0289132
7 1 0.10619 0.0945354 0.0942391
851 1 0.195367 0.110902 0.111314
292 1 0.235552 0.0410022 0.124762
1431 1 0.36303 0.0604261 0.0753918
1595 1 0.421605 0.105413 0.055281
885 1 0.600744 0.0607421 0.040136
1021 1 0.65967 0.986959 0.0949528
372 1 0.79671 0.0798736 0.0853626
379 1 0.0334573 0.107644 0.0594349
579 1 0.0421565 0.180959 0.0795693
1183 1 0.680636 0.0682741 0.0582233
360 1 0.732963 0.131191 0.0737126
612 1 0.807079 0.153359 0.104614
69 1 0.194213 0.163462 0.0507926
688 1 0.3689 0.17168 0.0879706
584 1 0.465925 0.174274 0.0679878
865 1 0.642745 0.145933 0.0823781
983 1 0.909644 0.127837 0.0220808
1895 1 0.941992 0.220819 0.0292987
431 1 0.0191842 0.248107 0.0465487
874 1 0.168021 0.249436 0.0724291
1966 1 0.698921 0.202355 0.0869638
648 1 0.81984 0.235486 0.110122
1606 1 0.0298699 0.303443 0.11121
1570 1 0.12348 0.311051 0.127786
574 1 0.270848 0.368286 0.0928463
1702 1 0.359319 0.309966 0.0828997
1652 1 0.550944 0.275804 0.122105
1674 1 0.627761 0.238558 0.13121
1978 1 0.810189 0.320846 0.0982216
1837 1 0.876891 0.290663 0.105032
803 1 0.0720157 0.390259 0.0324748
495 1 0.217301 0.313517 0.076062
679 1 0.335548 0.355604 0.142815
1439 1 0.411527 0.32306 0.138686
601 1 0.6641 0.290484 0.0818126
854 1 0.797325 0.394943 0.113207
1356 1 0.966656 0.396031 0.10128
1082 1 0.0159426 0.453956 0.152329
473 1 0.309721 0.428263 0.146171
1181 1 0.484443 0.33354 0.0988926
428 1 0.568505 0.426739 0.0766724
57 1 0.658975 0.391995 0.0506626
117 1 0.872628 0.440308 0.0869388
571 1 0.0296935 0.441945 0.0697087
366 1 0.19771 0.500877 0.0107722
1902 1 0.252767 0.477455 0.131949
1155 1 0.40414 0.522932 0.102654
704 1 0.500905 0.507738 0.0580482
1023 1 0.573647 0.488349 0.132895
1253 1 0.796396 0.482747 0.0506084
1647 1 0.833326 0.514298 0.111783
1383 1 0.874497 0.50665 0.041417
1979 1 0.0506883 0.525189 0.0730487
954 1 0.123057 0.560885 0.0786725
1268 1 0.326579 0.500578 0.113009
477 1 0.53563 0.561088 0.105947
165 1 0.606356 0.54077 0.0903095
1621 1 0.690465 0.524333 0.0795455
1840 1 0.927063 0.585936 0.0285117
1032 1 0.0450076 0.566698 0.138278
1934 1 0.12345 0.619523 0.0209976
1828 1 0.25888 0.555699 0.0871548
538 1 0.305349 0.620582 0.0825632
631 1 0.7176 0.598626 0.0410503
24 1 0.790693 0.6256 0.0582597
1096 1 0.828055 0.593986 0.119417
1869 1 0.98315 0.60487 0.0782617
1226 1 0.0619828 0.619255 0.0773272
296 1 0.0607042 0.664245 0.182695
1352 1 0.199496 0.670265 0.122066
659 1 0.42233 0.633747 0.0684095
672 1 0.500846 0.60571 0.0424437
173 1 0.593978 0.617843 0.112319
1398 1 0.862742 0.666008 0.0399063
77 1 0.0716194 0.710908 0.0946101
1949 1 0.250954 0.675696 0.0689388
1000 1 0.562384 0.72911 0.00932439
1993 1 0.553455 0.670844 0.0724073
1048 1 0.725429 0.71242 0.113794
591 1 0.944885 0.725128 0.0858375
44 1 0.00895718 0.685412 0.0416113
972 1 0.110101 0.763093 0.162453
526 1 0.21558 0.752561 0.0717436
775 1 0.336616 0.751444 0.110415
248 1 0.419025 0.721342 0.074153
810 1 0.398018 0.834918 0.115146
718 1 0.651714 0.749211 0.0445071
129 1 0.747544 0.773038 0.0528002
532 1 0.873148 0.739572 0.143035
597 1 0.00268601 0.765391 0.113115
81 1 0.32155 0.831913 0.124985
1174 1 0.548074 0.806979 0.127031
1012 1 0.538051 0.798529 0.0351713
1203 1 0.821721 0.761456 0.0802419
915 1 0.965118 0.856837 0.0949044
1440 1 0.0295731 0.88745 0.0468055
1180 1 0.246235 0.84787 0.104145
624 1 0.488956 0.864401 0.124165
1478 1 0.689812 0.782252 0.10879
1216 1 0.725514 0.855694 0.0910902
720 1 0.913736 0.906374 0.0300722
1654 1 0.105669 0.910081 0.036707
1685 1 0.172785 0.848331 0.0581163
1598 1 0.296334 0.909538 0.102785
305 1 0.534841 0.8814 0.0629134
1404 1 0.988682 0.954901 0.0610339
543 1 0.136455 0.0213566 0.0921382
1980 1 0.227248 0.970522 0.0741068
1122 1 0.350386 0.976992 0.0726651
489 1 0.438366 0.967289 0.128887
1898 1 0.528217 0.938172 0.119285
1239 1 0.884824 0.92528 0.100673
554 1 0.150974 0.0750537 0.168681
283 1 0.209621 0.03365 0.254099
818 1 0.278993 0.0438463 0.214802
1561 1 0.440172 0.0222015 0.192546
882 1 0.512672 0.0140031 0.146882
633 1 0.655727 0.952586 0.167302
1817 1 0.905629 0.00139164 0.0994095
1618 1 0.0553137 0.140728 0.144451
2038 1 0.396064 0.105361 0.130811
1900 1 0.47331 0.123055 0.12716
545 1 0.642474 0.0605178 0.122782
1414 1 0.734047 0.0587145 0.132776
1771 1 0.841262 0.04556 0.152838
288 1 0.141339 0.155432 0.154631
1437 1 0.108764 0.121107 0.220702
1315 1 0.220374 0.16901 0.155739
974 1 0.296243 0.0946966 0.154952
614 1 0.575392 0.102246 0.113393
220 1 0.890955 0.157508 0.103631
274 1 0.966415 0.155961 0.0682575
1513 1 0.940849 0.228231 0.108129
580 1 0.295693 0.167915 0.118109
1664 1 0.425078 0.177805 0.152416
339 1 0.502509 0.210642 0.154595
1726 1 0.686532 0.124318 0.149614
531 1 0.959592 0.157524 0.146511
1849 1 0.0912585 0.248401 0.0929136
738 1 0.162052 0.240352 0.154987
314 1 0.237937 0.220362 0.0988863
1084 1 0.386679 0.249366 0.124546
298 1 0.469139 0.252654 0.0935131
1944 1 0.598358 0.325664 0.183683
119 1 0.808045 0.277702 0.178288
1115 1 0.883951 0.214093 0.159111
1134 1 0.945784 0.304246 0.0531639
509 1 0.22713 0.339288 0.151804
1829 1 0.289816 0.292161 0.127063
517 1 0.513664 0.33702 0.174264
1577 1 0.735206 0.322666 0.138851
128 1 0.134087 0.381546 0.0885466
1418 1 0.282747 0.361249 0.206286
1454 1 0.530662 0.410247 0.151587
1033 1 0.566491 0.351856 0.111591
510 1 0.884702 0.369907 0.128438
174 1 0.171821 0.49635 0.0891603
958 1 0.454732 0.399856 0.165884
333 1 0.723403 0.448947 0.0425603
1783 1 0.934453 0.429519 0.172454
1009 1 0.95197 0.469842 0.104221
1523 1 0.104903 0.460811 0.116208
667 1 0.199563 0.41899 0.119314
1905 1 0.293126 0.506788 0.193253
588 1 0.382821 0.464037 0.155926
185 1 0.663045 0.476605 0.14809
1412 1 0.900989 0.578395 0.102327
609 1 0.137789 0.52676 0.153486
1975 1 0.213344 0.514406 0.19169
88 1 0.65042 0.640177 0.190203
421 1 0.698064 0.545073 0.151727
62 1 0.767322 0.547099 0.0829525
345 1 0.902992 0.511176 0.161922
791 1 0.118686 0.597837 0.180412
1952 1 0.129391 0.648683 0.107073
70 1 0.346295 0.587161 0.135964
962 1 0.350368 0.551327 0.0569062
179 1 0.433167 0.591751 0.138709
1814 1 0.729183 0.631517 0.123271
1859 1 0.0760465 0.621893 0.258683
1576 1 0.259744 0.59719 0.153838
1816 1 0.359922 0.676927 0.119777
708 1 0.44288 0.693308 0.179455
1469 1 0.667134 0.663975 0.0872138
1190 1 0.868962 0.662641 0.182984
1819 1 0.926245 0.653021 0.118972
1121 1 0.00299978 0.68323 0.124998
1947 1 0.151033 0.662913 0.211212
1114 1 0.293844 0.67102 0.159087
2000 1 0.416265 0.765314 0.144481
336 1 0.482329 0.71853 0.115554
188 1 0.829763 0.678375 0.111056
1650 1 0.943478 0.712152 0.177124
675 1 0.259217 0.734351 0.137283
696 1 0.472299 0.788492 0.0779837
1265 1 0.575221 0.741408 0.0904711
649 1 0.648682 0.708726 0.144714
1635 1 0.764471 0.777368 0.134036
466 1 0.929675 0.7934 0.137684
1110 1 0.0468507 0.827147 0.135567
144 1 0.133059 0.782953 0.239262
1349 1 0.345011 0.782402 0.191142
217 1 0.623196 0.786208 0.156589
1841 1 0.831338 0.808995 0.169616
1132 1 0.101249 0.875849 0.10245
1617 1 0.176715 0.801591 0.119876
981 1 0.357512 0.891699 0.215714
1937 1 0.424307 0.847909 0.1869
430 1 0.843432 0.859764 0.107936
12 1 0.0795482 0.949594 0.115431
937 1 0.175445 0.882165 0.14291
1476 1 0.290359 0.8867 0.17699
425 1 0.367716 0.933543 0.132667
1327 1 0.488272 0.91684 0.188066
86 1 0.561634 0.848899 0.195888
650 1 0.601964 0.88927 0.14405
1465 1 0.761893 0.930289 0.0853899
2019 1 0.805862 0.911568 0.149671
877 1 0.967818 0.924689 0.13149
1107 1 0.0684473 0.0453586 0.138731
1364 1 0.157235 0.937631 0.0929582
942 1 0.297891 0.997281 0.13998
1699 1 0.372565 0.0141454 0.140136
1245 1 0.577474 0.956247 0.176212
420 1 0.768082 0.986292 0.141384
1572 1 0.830953 0.98404 0.20199
82 1 0.00268101 0.995215 0.133819
209 1 0.109655 0.027137 0.220621
1052 1 0.745556 -0.00213033 0.214898
1482 1 0.943791 0.0303104 0.172859
902 1 0.0306346 0.159646 0.225316
1068 1 0.223858 0.0955412 0.188538
380 1 0.368953 0.0452908 0.212325
2018 1 0.50962 0.0502557 0.271033
2036 1 0.533601 0.127335 0.19231
1497 1 0.656853 0.037177 0.198732
2031 1 0.987899 0.0821283 0.122736
1448 1 0.0098643 0.232888 0.14406
782 1 0.347153 0.126173 0.258695
160 1 0.438792 0.105879 0.199098
1477 1 0.617705 0.111357 0.186558
740 1 0.719787 0.076089 0.220103
441 1 0.796931 0.109638 0.165925
266 1 0.876568 0.129968 0.191075
1087 1 0.904988 0.0866745 0.128119
39 1 0.276231 0.147938 0.21607
1027 1 0.354087 0.152023 0.171896
1511 1 0.580133 0.174509 0.134814
982 1 0.813413 0.186452 0.180657
355 1 0.843864 0.166617 0.254367
1964 1 0.0812773 0.203839 0.178897
1368 1 0.249117 0.240001 0.176228
1272 1 0.312181 0.213933 0.250489
1972 1 0.325315 0.230466 0.171165
1690 1 0.398205 0.22825 0.210027
442 1 0.743936 0.181561 0.145826
1754 1 0.853674 0.239158 0.232316
931 1 0.933249 0.249979 0.214917
604 1 0.0536708 0.30488 0.185095
328 1 0.113971 0.266062 0.221545
195 1 0.266073 0.298694 0.258402
728 1 0.46217 0.277988 0.194885
1781 1 0.621904 0.247963 0.228292
92 1 0.697835 0.258338 0.159853
550 1 0.815684 0.358939 0.189192
382 1 0.00118231 0.366461 0.164282
475 1 0.0700226 0.385767 0.134475
365 1 0.151952 0.370815 0.172089
479 1 0.345751 0.292145 0.232578
1911 1 0.414537 0.333028 0.215096
453 1 0.590748 0.395093 0.221281
1582 1 0.665092 0.3552 0.130973
23 1 0.955448 0.300781 0.149766
1354 1 0.0362893 0.418343 0.221011
1074 1 0.367394 0.396842 0.208677
1552 1 0.494024 0.477561 0.134021
399 1 0.614232 0.419806 0.14338
1024 1 0.708961 0.425284 0.113796
1359 1 0.738079 0.393542 0.179047
392 1 0.169352 0.455683 0.179748
79 1 0.243721 0.441383 0.196962
1046 1 0.448463 0.520042 0.181681
729 1 0.622514 0.569283 0.165818
1776 1 0.755 0.49067 0.131058
1126 1 0.841215 0.441402 0.164562
1036 1 0.978484 0.472449 0.21693
1288 1 0.967108 0.550005 0.136909
1241 1 0.0846605 0.483338 0.193188
1468 1 0.284721 0.508686 0.268591
910 1 0.366891 0.531501 0.196546
1624 1 0.503662 0.475576 0.218893
1653 1 0.997961 0.621195 0.165727
929 1 0.299946 0.57414 0.230466
835 1 0.378915 0.637193 0.187167
276 1 0.842917 0.515324 0.209642
583 1 0.919957 0.595489 0.179012
422 1 0.19472 0.601616 0.207845
869 1 0.226 0.671365 0.202087
1868 1 0.302036 0.653931 0.240938
1740 1 0.491834 0.643508 0.213779
134 1 0.511823 0.645972 0.13931
799 1 0.573999 0.693038 0.151585
913 1 0.725774 0.605481 0.203492
1436 1 0.932933 0.665964 0.240944
67 1 0.99805 0.606989 0.241473
515 1 0.879493 0.750052 0.247686
1149 1 0.00344381 0.69683 0.234376
1116 1 0.0386713 0.743383 0.179133
663 1 0.49199 0.772464 0.173413
1014 1 0.726843 0.689637 0.194963
413 1 0.972333 0.777292 0.211025
121 1 0.165198 0.861944 0.262125
407 1 0.198007 0.751612 0.182478
1473 1 0.256014 0.807897 0.173119
750 1 0.411364 0.768867 0.224711
1173 1 0.493064 0.832603 0.232998
143 1 0.624709 0.725504 0.228752
1962 1 0.695828 0.763299 0.189759
72 1 0.805088 0.773175 0.234861
1723 1 0.902351 0.815766 0.211849
1826 1 0.969612 0.849565 0.172795
189 1 0.0294838 0.896426 0.180383
317 1 0.217709 0.884625 0.209592
1187 1 0.303529 0.917236 0.2679
80 1 0.563169 0.831322 0.273313
280 1 0.690141 0.839322 0.161765
608 1 0.768145 0.841743 0.20229
535 1 0.833696 0.889996 0.22699
451 1 0.884371 0.881741 0.169682
552 1 0.113476 0.843437 0.172264
444 1 0.326773 0.972312 0.212313
1090 1 0.413996 0.943761 0.199314
1805 1 0.898528 0.959289 0.174207
240 1 0.0678911 0.969798 0.18987
866 1 0.23354 0.935914 0.147803
1492 1 0.401628 0.0191 0.276407
493 1 0.466603 0.967354 0.276911
219 1 0.721075 0.910569 0.161929
454 1 0.763648 0.924427 0.223801
1422 1 0.0464637 0.075198 0.203175
1075 1 0.163034 0.963494 0.265144
1998 1 0.224655 0.0117527 0.330998
470 1 0.258407 0.0761212 0.294389
1336 1 0.43715 0.984306 0.346124
270 1 0.565022 0.0519495 0.202445
1496 1 0.765241 0.0142477 0.292271
1227 1 0.894261 0.0620586 0.224528
1095 1 0.057683 0.0796816 0.285121
1924 1 0.118349 0.14491 0.314342
1321 1 0.685085 0.0184139 0.271893
211 1 0.803666 0.0548089 0.226894
109 1 0.959294 0.100859 0.203212
1637 1 0.986354 0.115215 0.273656
1013 1 0.141892 0.201894 0.26192
29 1 0.222211 0.207298 0.243692
1605 1 0.18529 0.125026 0.249921
1508 1 0.417495 0.0942904 0.281469
914 1 0.549827 0.982529 0.291016
1029 1 0.911509 0.0987616 0.292739
1865 1 0.273653 0.155705 0.294208
912 1 0.542086 0.265091 0.201548
465 1 0.571362 0.190984 0.219722
2028 1 0.656675 0.187163 0.192244
1302 1 0.769712 0.131975 0.238631
1539 1 0.929967 0.169764 0.22759
966 1 0.0589321 0.189049 0.294732
1282 1 0.16664 0.269197 0.291986
1847 1 0.328361 0.285072 0.319869
1330 1 0.389489 0.247452 0.28398
730 1 0.471035 0.215419 0.313059
695 1 0.773119 0.226904 0.231359
1500 1 0.829593 0.229191 0.307936
829 1 0.900855 0.29123 0.275262
638 1 0.194494 0.286301 0.211055
1623 1 0.448288 0.29957 0.275953
1022 1 0.527006 0.324823 0.254495
191 1 0.608649 0.319164 0.269089
377 1 0.110344 0.408657 0.220834
620 1 0.287016 0.364178 0.302965
1192 1 0.381313 0.348946 0.283498
1546 1 0.668056 0.416667 0.210441
1870 1 0.676195 0.332381 0.208059
1928 1 0.882831 0.311915 0.190258
1141 1 0.944345 0.358732 0.304134
1054 1 0.9796 0.311011 0.242869
1235 1 0.0621727 0.35106 0.25103
1495 1 0.222375 0.363992 0.258812
1086 1 0.430487 0.434119 0.240869
1946 1 0.51137 0.398086 0.232157
149 1 0.591385 0.476577 0.21144
1564 1 0.812429 0.389712 0.269217
401 1 0.884167 0.384689 0.224043
1758 1 0.957525 0.397662 0.240183
797 1 0.0258746 0.414464 0.299004
617 1 0.0944421 0.470659 0.265771
2044 1 0.171289 0.457269 0.268213
125 1 0.373227 0.514361 0.289878
1472 1 0.539981 0.572706 0.262682
1318 1 0.722057 0.477166 0.210084
1442 1 0.0236843 0.541198 0.210922
1456 1 0.140923 0.522135 0.235763
1097 1 0.208265 0.544842 0.293254
1540 1 0.430727 0.585267 0.217777
1434 1 0.537701 0.539393 0.185159
1028 1 0.600251 0.514638 0.283716
1615 1 0.675304 0.531816 0.222569
1297 1 0.793368 0.468737 0.260136
1098 1 0.0752763 0.547497 0.275554
998 1 0.365793 0.604524 0.264673
1230 1 0.4771 0.613461 0.284488
1603 1 0.626319 0.587402 0.247603
307 1 0.772617 0.557143 0.16332
1460 1 0.902526 0.46303 0.236346
1954 1 0.946058 0.543118 0.236521
1461 1 0.2164 0.651151 0.276175
487 1 0.348045 0.708031 0.208868
1340 1 0.788274 0.646766 0.16862
1983 1 0.8449 0.596028 0.214397
1531 1 0.0623299 0.679638 0.319
2039 1 0.179154 0.723247 0.25383
1977 1 0.333693 0.776651 0.281534
415 1 0.556438 0.685396 0.234556
496 1 0.68839 0.651045 0.258073
1522 1 0.890213 0.692449 0.302481
232 1 0.957431 0.741974 0.281244
585 1 0.0816583 0.701459 0.247571
898 1 0.263936 0.726739 0.247265
1480 1 0.474157 0.723679 0.260075
840 1 0.808627 0.720415 0.177364
542 1 0.0374217 0.825212 0.22359
1707 1 0.219026 0.807433 0.253867
792 1 0.289049 0.839822 0.242146
457 1 0.556354 0.764718 0.214253
120 1 0.734534 0.793511 0.259323
1769 1 0.094248 0.888389 0.236716
1692 1 0.440299 0.893111 0.249002
252 1 0.649692 0.811063 0.231028
1784 1 0.145558 0.928633 0.194125
578 1 0.239001 0.966203 0.225391
1043 1 0.379206 0.940931 0.285994
1486 1 0.425787 0.951863 0.412833
556 1 0.62705 0.890266 0.229385
1222 1 0.707133 0.868382 0.248891
1127 1 0.972559 0.943143 0.206772
1675 1 0.308077 0.00918973 0.278186
1969 1 0.513801 0.984494 0.219038
369 1 0.690015 0.94573 0.241829
784 1 0.720559 0.937052 0.319985
1763 1 0.905874 0.928732 0.249674
796 1 0.0206 0.00733502 0.238302
1011 1 0.984981 0.0492881 0.317539
505 1 0.292586 0.0386121 0.364429
1613 1 0.344764 0.0753323 0.321741
312 1 0.618335 0.0343714 0.306448
1667 1 0.764506 0.0554212 0.36193
1058 1 0.139134 0.0708617 0.297537
432 1 0.272107 0.115634 0.380749
922 1 0.489762 0.134847 0.256464
224 1 0.581946 0.120208 0.255808
387 1 0.830147 0.0794323 0.300995
485 1 0.933907 0.0938491 0.377312
1550 1 0.0483358 0.21098 0.370089
390 1 0.130827 0.0993297 0.388525
758 1 0.658592 0.109489 0.25993
1444 1 0.715712 0.0820601 0.304639
1490 1 0.946349 0.16031 0.32555
325 1 0.120423 0.227329 0.338235
1063 1 0.19402 0.19092 0.315435
327 1 0.332359 0.185485 0.337135
1391 1 0.417937 0.168718 0.261724
933 1 0.482669 0.207649 0.231148
1584 1 0.710246 0.179027 0.263866
859 1 0.774445 0.160325 0.313288
1262 1 0.555899 0.259107 0.27637
136 1 0.623395 0.184639 0.294396
384 1 0.704496 0.262428 0.244238
790 1 0.72895 0.236168 0.318353
1608 1 0.900269 0.208101 0.286499
472 1 0.974562 0.247865 0.286463
221 1 0.0385206 0.244613 0.232935
326 1 0.139814 0.338742 0.248942
344 1 0.221447 0.311172 0.322778
269 1 0.26174 0.235962 0.30833
1822 1 0.409876 0.299328 0.349724
1706 1 0.506942 0.296097 0.3283
1413 1 0.703097 0.339796 0.327505
1780 1 0.121001 0.402648 0.311623
1649 1 0.337549 0.342745 0.370276
625 1 0.48157 0.371068 0.299501
639 1 0.561032 0.371863 0.30972
1524 1 0.767308 0.330905 0.259869
778 1 0.0718015 0.461551 0.336766
1573 1 0.199561 0.401683 0.328016
512 1 0.256092 0.432314 0.28107
1198 1 0.347879 0.424273 0.291204
1968 1 0.552645 0.448012 0.277543
1860 1 0.662164 0.465932 0.271528
1125 1 0.725678 0.396527 0.270868
1996 1 0.871474 0.383815 0.333403
1487 1 -0.00104572 0.373986 0.377998
846 1 0.313445 0.534763 0.346216
447 1 0.471617 0.446253 0.312492
1506 1 0.779044 0.434422 0.324631
654 1 0.861474 0.468724 0.306863
335 1 0.931335 0.438447 0.303845
1334 1 0.134568 0.541024 0.327489
275 1 0.45381 0.521895 0.275728
1913 1 0.523747 0.522879 0.324888
1395 1 0.729784 0.497633 0.304179
1263 1 0.92723 0.52002 0.310937
643 1 0.0210484 0.493304 0.284974
589 1 0.982376 0.661522 0.305112
1305 1 0.0927779 0.608827 0.334049
1316 1 0.19273 0.610252 0.341557
1681 1 0.287947 0.606643 0.30491
725 1 0.381839 0.576341 0.342074
1415 1 0.608956 0.581886 0.333887
230 1 0.669763 0.629335 0.336406
1161 1 0.777816 0.55743 0.239834
1450 1 0.143715 0.664677 0.309916
30 1 0.299451 0.692977 0.318627
1251 1 0.549688 0.636421 0.311613
798 1 0.573732 0.618013 0.194114
1701 1 0.695657 0.568519 0.284902
1676 1 0.829966 0.681412 0.247131
611 1 0.930213 0.599059 0.289433
1427 1 0.00968246 0.73433 0.338534
1019 1 0.149307 0.5942 0.273231
1827 1 0.419842 0.658925 0.249526
249 1 0.937623 0.690259 0.365467
1278 1 0.033335 0.759814 0.267244
16 1 0.209825 0.708931 0.329908
1715 1 0.254995 0.783143 0.318643
1745 1 0.43419 0.815589 0.294747
930 1 0.511465 0.777544 0.295405
186 1 0.616592 0.662654 0.284997
561 1 0.682253 0.743747 0.288986
834 1 0.753645 0.716483 0.262646
755 1 0.0155263 0.814791 0.318079
1067 1 0.0953653 0.82651 0.295247
436 1 0.162537 0.771931 0.311949
1162 1 0.334826 0.804659 0.355796
788 1 0.495934 0.866072 0.302237
1016 1 0.592501 0.755989 0.315351
507 1 0.814076 0.787368 0.31737
559 1 0.902675 0.772846 0.345503
455 1 0.203113 0.843664 0.326146
10 1 0.27744 0.861465 0.318237
97 1 0.362593 0.848769 0.285187
1380 1 0.638954 0.837824 0.30008
449 1 0.789699 0.853917 0.285546
678 1 0.879039 0.838333 0.281968
373 1 0.965065 0.854454 0.26033
712 1 0.965392 0.9233 0.302333
22 1 0.0227148 0.892519 0.350188
1204 1 0.102678 0.909791 0.312808
995 1 0.288351 0.959655 0.334314
939 1 0.557193 0.922743 0.244581
1843 1 0.580716 0.895211 0.32934
787 1 0.808178 0.934555 0.29138
1047 1 0.879198 0.912166 0.336407
586 1 0.0931524 0.985038 0.297515
1060 1 0.232862 0.929935 0.294884
928 1 0.476701 0.0846739 0.394702
48 1 0.615477 0.978201 0.247596
59 1 0.650037 0.916742 0.304001
1614 1 0.941612 0.00416151 0.251387
370 1 0.063571 0.0583436 0.370818
590 1 0.150641 0.0263988 0.360354
499 1 0.505008 0.0102407 0.366593
192 1 0.019654 0.121623 0.351353
1056 1 0.20244 0.113705 0.334987
1338 1 0.348145 0.080897 0.405461
389 1 0.589839 0.0425781 0.378419
789 1 0.606084 0.121237 0.333864
1353 1 0.864367 0.0513392 0.363586
1291 1 0.170402 0.0720081 0.456141
771 1 0.354229 0.163686 0.415566
826 1 0.394514 0.12889 0.354801
198 1 0.471481 0.137295 0.335996
615 1 0.53144 0.0827635 0.33862
394 1 0.537304 0.176039 0.300446
316 1 0.873373 0.157224 0.339817
1580 1 0.915157 0.174427 0.407044
1298 1 0.970033 0.23333 0.364164
1517 1 0.234028 0.144478 0.443834
153 1 0.262647 0.199059 0.387829
941 1 0.686847 0.166854 0.354464
642 1 0.755564 0.223345 0.39114
1406 1 0.0987623 0.300094 0.313043
757 1 0.187009 0.263439 0.373751
156 1 0.36059 0.255971 0.40996
992 1 0.533613 0.225706 0.364479
1044 1 0.824408 0.287307 0.374593
386 1 0.017767 0.316467 0.318935
74 1 0.159295 0.338254 0.366552
1770 1 0.268157 0.274947 0.379456
934 1 0.662895 0.277301 0.308157
1175 1 0.685388 0.262217 0.381719
1026 1 0.747153 0.305251 0.38959
1299 1 0.83092 0.316108 0.304808
181 1 0.897146 0.261804 0.349928
884 1 0.261404 0.366525 0.379041
504 1 0.485525 0.355357 0.377595
227 1 0.621491 0.359674 0.354606
1289 1 0.64499 0.39048 0.280494
1922 1 0.779377 0.359542 0.345249
1467 1 0.322287 0.420382 0.367601
1872 1 0.409012 0.377182 0.351044
1069 1 0.703656 0.428559 0.345372
132 1 0.919916 0.383103 0.404294
1182 1 0.0631283 0.539997 0.36136
1672 1 0.183138 0.482223 0.359999
154 1 0.264787 0.470712 0.350295
110 1 0.395194 0.466392 0.349865
239 1 0.61288 0.446926 0.363159
1732 1 0.988546 0.511928 0.36072
1231 1 0.171849 0.555893 0.397337
1912 1 0.246082 0.559057 0.366094
1195 1 0.458492 0.524806 0.368555
338 1 0.661101 0.516968 0.339923
409 1 0.867723 0.52639 0.372463
514 1 0.929472 0.462257 0.382312
433 1 0.411399 0.649001 0.322045
2022 1 0.596627 0.547834 0.403833
2002 1 0.803077 0.545458 0.325881
1854 1 0.863617 0.54613 0.278234
691 1 0.0243643 0.612256 0.383585
1797 1 0.149065 0.640363 0.398574
1007 1 0.360045 0.648633 0.377779
1483 1 0.718531 0.688243 0.330499
1514 1 0.940408 0.591889 0.373664
1236 1 0.0702875 0.670975 0.403881
169 1 0.260664 0.637605 0.375678
1328 1 0.395128 0.72824 0.286607
1994 1 0.479215 0.682354 0.33631
1323 1 0.609384 0.623104 0.401303
735 1 0.763271 0.644103 0.278799
569 1 0.84861 0.620898 0.290738
1562 1 0.0955251 0.758459 0.352625
1292 1 0.157968 0.715099 0.38666
595 1 0.687119 0.736083 0.407517
657 1 0.795134 0.708046 0.33008
131 1 0.860598 0.697851 0.378971
176 1 0.0354112 0.935405 0.255344
51 1 0.0523869 0.812663 0.390076
1646 1 0.240512 0.825858 0.390397
822 1 0.555542 0.67736 0.372923
315 1 0.742951 0.7632 0.348616
146 1 0.860622 0.835118 0.36617
626 1 0.965548 0.798914 0.39708
262 1 0.123528 0.864867 0.37223
714 1 0.345669 0.90374 0.345716
596 1 0.408112 0.828243 0.369222
986 1 0.548536 0.827497 0.360248
773 1 0.775307 0.886497 0.372912
1294 1 0.94694 0.846527 0.338301
68 1 0.168538 0.947786 0.344487
205 1 0.308468 0.914837 0.416251
710 1 0.430942 0.904322 0.352656
19 1 0.503633 0.932964 0.337732
1209 1 0.563425 0.882512 0.41629
684 1 0.726172 0.843832 0.328444
1535 1 0.840001 0.892637 0.415206
1800 1 0.940497 0.933632 0.38648
1396 1 0.0314454 0.988427 0.342866
66 1 0.087971 0.947025 0.388196
172 1 0.246472 0.971099 0.407755
235 1 0.361214 0.990393 0.368529
501 1 0.589628 0.957963 0.379247
1493 1 0.657394 0.983796 0.349399
519 1 0.782217 0.963878 0.359213
1113 1 0.857632 0.00300734 0.278786
1992 1 0.0115168 0.017842 0.417398
1237 1 0.22142 0.0552645 0.401146
1950 1 0.317382 0.00916985 0.430574
1392 1 0.411174 0.0301046 0.424367
257 1 0.485272 0.0184208 0.445925
1724 1 0.565577 0.998697 0.443644
222 1 0.640644 0.00743193 0.425276
272 1 0.669496 0.0618427 0.363155
408 1 0.796415 0.0039688 0.426759
518 1 0.927194 0.0144562 0.401895
1388 1 0.0292468 0.101095 0.43746
1806 1 0.278785 0.0801093 0.470729
945 1 0.425927 0.138221 0.427809
58 1 0.944749 0.10005 0.455368
162 1 0.994207 0.168625 0.411996
1123 1 0.0893858 0.163939 0.425115
1644 1 0.546869 0.0785176 0.432081
863 1 0.633135 0.117051 0.405691
1071 1 0.737115 0.128867 0.413589
2011 1 0.872501 0.116082 0.430534
1887 1 0.947031 0.187132 0.48833
381 1 0.162846 0.187701 0.387693
656 1 0.415092 0.207423 0.370602
1527 1 0.491884 0.18195 0.431877
1185 1 0.538073 0.249212 0.440282
1112 1 0.617608 0.200781 0.37723
670 1 0.686334 0.195821 0.42604
1989 1 0.954607 0.259495 0.442807
587 1 0.0236042 0.284162 0.406106
1158 1 0.206994 0.226525 0.438984
1833 1 0.295017 0.234216 0.453835
896 1 0.474382 0.270563 0.392658
774 1 0.579421 0.296907 0.357853
1337 1 0.841606 0.208775 0.38978
1 1 0.41771 0.318552 0.426979
1668 1 0.628981 0.238852 0.470514
1081 1 0.883598 0.30535 0.422768
953 1 0.954143 0.31004 0.381259
1700 1 0.074187 0.33731 0.378416
1909 1 0.196358 0.356434 0.430177
290 1 0.327642 0.317982 0.44392
71 1 0.676918 0.340605 0.404054
347 1 0.754607 0.408737 0.400434
1976 1 0.813758 0.349483 0.420488
1471 1 0.0735858 0.416423 0.399329
193 1 0.157488 0.428281 0.412791
936 1 0.291711 0.448544 0.433212
833 1 0.379675 0.425929 0.417942
1960 1 0.673406 0.4274 0.418931
1857 1 0.0108804 0.457619 0.417312
1257 1 0.0534404 0.520298 0.446136
35 1 0.241867 0.505498 0.418801
1713 1 0.454823 0.43858 0.397093
124 1 0.536727 0.417077 0.379084
350 1 0.660392 0.502732 0.417319
562 1 0.746867 0.488403 0.381917
1346 1 0.832 0.425312 0.394042
152 1 0.864839 0.395037 0.464516
1402 1 0.115724 0.493032 0.402557
839 1 0.264746 0.45389 0.512565
1094 1 0.318692 0.536792 0.423415
362 1 0.512244 0.492237 0.420295
34 1 0.00431116 0.568754 0.31024
1475 1 0.0962726 0.590815 0.429314
287 1 0.224254 0.529169 0.507486
528 1 0.260976 0.623583 0.453249
927 1 0.456839 0.604849 0.363083
2032 1 0.664241 0.581953 0.441464
434 1 0.720508 0.572417 0.37757
38 1 0.8051 0.570982 0.403041
1142 1 0.860791 0.616147 0.372791
1138 1 0.959368 0.504955 0.51465
925 1 0.412417 0.705557 0.373003
440 1 0.534058 0.59888 0.379402
1279 1 0.910149 0.661811 0.435555
952 1 0.0241752 0.744455 0.4217
764 1 0.217234 0.685635 0.429902
323 1 0.330844 0.728118 0.377472
1261 1 0.645179 0.701194 0.346621
1267 1 0.772071 0.632015 0.362878
1734 1 0.840557 0.704184 0.455383
1987 1 0.944153 0.733104 0.436474
1502 1 0.994347 0.671197 0.419988
785 1 0.106269 0.76522 0.433379
250 1 0.259161 0.750573 0.39371
1588 1 0.302192 0.77084 0.466017
459 1 0.376111 0.695075 0.457557
711 1 0.554659 0.758683 0.387764
1405 1 0.622215 0.78727 0.433019
845 1 0.805365 0.76007 0.394028
427 1 0.880813 0.782623 0.429154
1808 1 0.0307447 0.815137 0.465898
1358 1 0.107376 0.823537 0.481643
652 1 0.16583 0.796236 0.388922
1940 1 0.324736 0.838664 0.42752
406 1 0.381439 0.764296 0.417253
1423 1 0.455372 0.76524 0.348154
1147 1 0.654023 0.785322 0.354144