ITEM: TIMESTEP
100000
ITEM: NUMBER OF ATOMS
2048
ITEM: BOX BOUNDS pp pp pp
0.0000000000000000e+00 1.1950412657485773e+01
0.0000000000000000e+00 1.1950412657485773e+01
0.0000000000000000e+00 1.1950412657485773e+01
ITEM: ATOMS id type xs ys zs
9 1 0.258169 0.997528 0.996016
15 1 0.436624 0.996301 0.0713987
24 1 0.623258 0.064479 0.0557041
2 1 0.0605985 0.0529688 0.999115
18 1 0.561596 0.060224 0.998161
59 1 0.808644 0.142602 0.0592346
32 1 0.870965 0.0719893 0.0709542
30 1 0.936049 0.0548128 0.991584
41 1 0.245179 0.124777 0.00767269
49 1 0.492242 0.122354 0.993389
34 1 0.0572508 0.180346 0.991579
46 1 0.436246 0.186667 0.00434194
50 1 0.55352 0.182409 0.991861
60 1 0.741659 0.182828 0.0663643
65 1 0.989145 0.250085 0.001242
81 1 0.494506 0.251768 0.991321
85 1 0.620688 0.248661 0.999556
89 1 0.751664 0.249799 0.998132
93 1 0.874157 0.246954 0.00946359
78 1 0.439462 0.315126 1.00247
82 1 0.560709 0.304822 0.994835
86 1 0.678931 0.31816 0.00215035
90 1 0.819221 0.305034 0.00398867
94 1 0.936216 0.316296 0.0137952
101 1 0.126667 0.370666 0.993574
105 1 0.25826 0.372719 -0.000404047
109 1 0.368334 0.36954 0.994157
113 1 0.500225 0.365932 0.999546
117 1 0.621273 0.374762 0.997643
121 1 0.754988 0.380018 0.989373
125 1 0.869038 0.373969 0.00918702
97 1 0.993489 0.376726 0.00917389
102 1 0.188379 0.425127 0.00213594
106 1 0.310256 0.446128 0.00879194
110 1 0.43892 0.427662 0.99727
114 1 0.556276 0.437322 0.998475
118 1 0.680355 0.45057 0.986729
135 1 0.186924 0.487603 0.060153
147 1 0.563595 0.504546 0.0576105
153 1 0.744096 0.500498 0.987008
126 1 0.92926 0.430009 0.00285541
129 1 0.00253087 0.513796 0.993075
141 1 0.374744 0.495704 0.999476
157 1 0.871903 0.49036 -0.00349166
158 1 0.942282 0.566838 0.990002
136 1 0.119262 0.559728 0.0684901
138 1 0.314243 0.563716 0.0010635
150 1 0.685213 0.570684 0.988484
173 1 0.367743 0.625239 0.994653
175 1 0.441641 0.630095 0.065869
189 1 0.86409 0.630788 0.00793086
161 1 0.00806552 0.625201 0.0186337
162 1 0.064384 0.684097 0.0146498
170 1 0.298285 0.687477 0.995337
174 1 0.432916 0.677241 0.992857
188 1 0.750031 0.693968 0.0801767
186 1 0.804654 0.682945 0.00601213
193 1 0.986367 0.750281 0.99638
201 1 0.237378 0.755838 0.00306898
205 1 0.372323 0.737847 0.996078
209 1 0.49848 0.737309 0.994161
211 1 0.555929 0.745846 0.0576758
215 1 0.689761 0.750574 0.0672777
217 1 0.765113 0.757173 0.988496
200 1 0.116101 0.813759 0.0756595
202 1 0.296248 0.812446 0.010686
208 1 0.375143 0.80301 0.056736
206 1 0.444753 0.79854 0.998436
218 1 0.824203 0.816081 0.997263
222 1 0.919352 0.804972 2.00032e-05
227 1 0.0564189 0.871438 0.0649482
235 1 0.309896 0.870601 0.0770627
249 1 0.755463 0.881187 0.00182038
251 1 0.809564 0.879996 0.068388
255 1 0.937943 0.86558 0.0573227
230 1 0.195495 0.942418 0.00549983
236 1 0.254524 0.933955 0.0600563
240 1 0.386888 0.929927 0.0672717
238 1 0.446934 0.940751 0.994244
244 1 0.494864 0.93697 0.0609976
3 1 0.0669597 0.993978 0.0579293
5 1 0.128416 0.985806 0.996198
254 1 0.926243 0.941646 0.0049585
1 1 0.99784 0.996701 0.00569964
7 1 0.178628 0.996241 0.063166
11 1 0.322337 0.999097 0.0679077
16 1 0.375733 0.0591271 0.0562631
19 1 0.573298 0.998656 0.0607205
28 1 0.751139 0.0680121 0.0596749
4 1 0.00196435 0.0647825 0.0555235
35 1 0.0654379 0.125321 0.0628135
8 1 0.125444 0.0552737 0.0576982
12 1 0.24808 0.0657296 0.0657223
20 1 0.502213 0.0633473 0.0571
39 1 0.187006 0.11952 0.0685779
43 1 0.314654 0.121537 0.0589822
47 1 0.448073 0.123906 0.069414
51 1 0.555549 0.127556 0.061842
55 1 0.686198 0.125166 0.0539848
63 1 0.929553 0.128289 0.0555111
40 1 0.128197 0.185592 0.0581095
44 1 0.243195 0.193279 0.0605714
48 1 0.37051 0.186553 0.0590422
52 1 0.501526 0.187065 0.0550689
56 1 0.622076 0.187655 0.0617597
64 1 0.87693 0.187158 0.0677834
36 1 0.998984 0.18142 0.0605777
67 1 0.0557068 0.247163 0.0490671
71 1 0.180093 0.252862 0.0598295
75 1 0.306982 0.243987 0.0693052
79 1 0.444697 0.249141 0.0639975
83 1 0.561101 0.252028 0.0630277
87 1 0.67916 0.247089 0.0541004
91 1 0.816607 0.241202 0.0622488
95 1 0.937516 0.238775 0.0630602
68 1 0.00179055 0.308939 0.0632834
72 1 0.115796 0.312258 0.0585311
76 1 0.242517 0.299758 0.0686221
80 1 0.3836 0.31138 0.0655326
84 1 0.505211 0.305086 0.053039
88 1 0.62183 0.306641 0.0657861
92 1 0.756023 0.312257 0.0574115
96 1 0.86915 0.313439 0.0656489
99 1 0.0670538 0.382073 0.0514491
103 1 0.197335 0.370752 0.066147
107 1 0.305972 0.367394 0.0695369
111 1 0.43779 0.373751 0.0676639
115 1 0.564535 0.378442 0.0644831
119 1 0.69558 0.384059 0.0529202
123 1 0.812255 0.373858 0.0729603
127 1 0.929157 0.368246 0.0742055
104 1 0.126317 0.440192 0.0495285
108 1 0.248552 0.433799 0.0686354
112 1 0.364781 0.426644 0.069383
116 1 0.506806 0.43568 0.063599
120 1 0.614135 0.438142 0.0514271
124 1 0.746924 0.4449 0.0485712
100 1 -0.000135569 0.449572 0.0485316
139 1 0.3087 0.49904 0.0719069
143 1 0.430794 0.489907 0.0565728
151 1 0.689359 0.500819 0.0641077
128 1 0.865762 0.437995 0.0641834
131 1 0.0629405 0.503566 0.0602503
140 1 0.254683 0.561777 0.0734549
148 1 0.49017 0.547978 0.0561726
155 1 0.812858 0.504026 0.0514487
159 1 0.925926 0.505964 0.0543867
132 1 0.989146 0.557955 0.0620014
144 1 0.383776 0.561394 0.0623394
152 1 0.624021 0.554776 0.0627694
156 1 0.763177 0.56723 0.06083
160 1 0.868257 0.564091 0.0538686
191 1 0.935748 0.624063 0.0576148
163 1 0.0679151 0.630492 0.0748062
167 1 0.184295 0.61688 0.0749723
171 1 0.313843 0.628279 0.0563265
179 1 0.557318 0.616134 0.0608213
183 1 0.68972 0.610482 0.0635704
187 1 0.811261 0.634906 0.0680477
168 1 0.129461 0.692538 0.0687842
172 1 0.24902 0.684655 0.06498
176 1 0.381507 0.67767 0.05766
180 1 0.501843 0.683876 0.057022
184 1 0.63818 0.674076 0.058422
192 1 0.872423 0.695844 0.071183
164 1 0.996787 0.696671 0.0634551
195 1 0.0578915 0.750997 0.069453
199 1 0.178015 0.755907 0.0627971
203 1 0.308741 0.746287 0.060838
207 1 0.445596 0.745367 0.0592448
219 1 0.806268 0.753485 0.0818377
223 1 0.935546 0.74917 0.0676461
204 1 0.23477 0.813995 0.0637343
458 1 0.31051 0.799626 0.127538
212 1 0.508469 0.811035 0.0680031
216 1 0.619693 0.795978 0.0520398
220 1 0.744908 0.813287 0.0571524
224 1 0.864631 0.821828 0.066125
196 1 0.992052 0.805826 0.0670971
231 1 0.182951 0.874364 0.0715359
239 1 0.435232 0.857549 0.0628352
243 1 0.569792 0.86775 0.0425499
247 1 0.695064 0.882513 0.064704
232 1 0.122872 0.926278 0.0544686
248 1 0.630695 0.931682 0.0595004
252 1 0.759717 0.949138 0.0619612
256 1 0.873846 0.931379 0.0656463
228 1 0.98628 0.938377 0.0600886
23 1 0.685274 0.00221673 0.0590497
27 1 0.823404 0.00118402 0.0642253
31 1 0.932769 0.0107369 0.0584827
258 1 0.0570929 0.0607582 0.110229
261 1 0.112938 0.00294728 0.121435
266 1 0.307179 0.0689776 0.121495
273 1 0.503875 -0.000968741 0.118516
277 1 0.6262 0.00491163 0.12232
278 1 0.681473 0.0685824 0.114419
285 1 0.88044 0.00311794 0.126341
257 1 0.991352 0.99519 0.116927
262 1 0.177186 0.0519626 0.120705
270 1 0.443193 0.0683397 0.127469
274 1 0.563185 0.0672852 0.127005
282 1 0.810792 0.058916 0.123297
286 1 0.933507 0.0667202 0.123664
291 1 0.0638579 0.131104 0.17896
293 1 0.121352 0.124824 0.119119
297 1 0.252649 0.131436 0.116713
301 1 0.373134 0.118668 0.122471
305 1 0.50643 0.125361 0.127956
309 1 0.621055 0.128127 0.124711
313 1 0.75077 0.12624 0.121887
317 1 0.872822 0.136116 0.130117
289 1 0.000750079 0.131085 0.131042
290 1 0.0676922 0.183456 0.121375
294 1 0.190852 0.189743 0.119551
298 1 0.319246 0.184106 0.124447
302 1 0.448666 0.189919 0.128392
306 1 0.552873 0.195226 0.12236
310 1 0.687964 0.19443 0.12889
314 1 0.813344 0.192304 0.126802
318 1 0.93624 0.189903 0.128389
325 1 0.123013 0.246612 0.130943
329 1 0.255352 0.247672 0.142388
333 1 0.385776 0.23799 0.125888
337 1 0.496065 0.254209 0.125533
341 1 0.6161 0.245455 0.122941
345 1 0.743111 0.256067 0.118965
349 1 0.87339 0.250547 0.117556
321 1 0.997432 0.243212 0.121737
322 1 0.0752033 0.313533 0.128695
326 1 0.188641 0.300302 0.129817
330 1 0.311954 0.299816 0.124456
334 1 0.430983 0.307313 0.126547
338 1 0.561745 0.312618 0.121637
342 1 0.6873 0.323496 0.115581
346 1 0.805983 0.31445 0.126987
350 1 0.933651 0.308223 0.124539
353 1 0.997924 0.388296 0.110437
357 1 0.129741 0.37628 0.118649
361 1 0.246269 0.359824 0.128346
369 1 0.497392 0.361485 0.128907
373 1 0.628235 0.374352 0.113299
377 1 0.745277 0.373529 0.127956
381 1 0.874979 0.369028 0.134493
354 1 0.068617 0.433639 0.11521
358 1 0.19848 0.427658 0.131581
362 1 0.321526 0.425267 0.141497
365 1 0.37474 0.359708 0.129776
366 1 0.430005 0.436083 0.118896
370 1 0.560944 0.435717 0.12395
374 1 0.69503 0.441399 0.11939
378 1 0.816221 0.430895 0.134418
382 1 0.937851 0.444857 0.115745
393 1 0.244746 0.49619 0.125155
397 1 0.379277 0.49494 0.133401
385 1 0.00879081 0.49343 0.125545
389 1 0.125399 0.492839 0.116492
394 1 0.320866 0.560363 0.119728
401 1 0.494263 0.491533 0.130732
402 1 0.549811 0.555484 0.119638
405 1 0.616648 0.500104 0.118516
409 1 0.749377 0.515606 0.128139
413 1 0.871243 0.501523 0.117599
386 1 0.0608413 0.557577 0.126183
390 1 0.184346 0.547621 0.125487
398 1 0.442412 0.552413 0.125092
406 1 0.677387 0.559246 0.141034
410 1 0.816136 0.559086 0.133933
414 1 0.942241 0.564789 0.123869
417 1 0.996997 0.621005 0.116669
421 1 0.122478 0.627565 0.133361
425 1 0.258265 0.626167 0.123426
429 1 0.377048 0.621723 0.126079
433 1 0.499298 0.641284 0.125014
437 1 0.623342 0.620518 0.138902
441 1 0.749471 0.623133 0.118842
445 1 0.871562 0.622051 0.121692
418 1 0.0633676 0.690453 0.135767
422 1 0.186216 0.684634 0.125965
426 1 0.321209 0.678342 0.121038
430 1 0.430392 0.683996 0.127214
434 1 0.577255 0.679985 0.109904
438 1 0.682201 0.678384 0.129354
442 1 0.809142 0.678161 0.138889
446 1 0.940348 0.68706 0.126597
453 1 0.122142 0.748108 0.125498
457 1 0.247604 0.745799 0.126295
461 1 0.373233 0.74484 0.123187
465 1 0.500954 0.748857 0.120078
469 1 0.62655 0.748375 0.127724
473 1 0.750318 0.756565 0.137007
477 1 0.876544 0.756576 0.126463
449 1 0.995651 0.748923 0.130306
450 1 0.0604524 0.811492 0.134541
454 1 0.176982 0.814892 0.129194
462 1 0.439935 0.807422 0.130418
466 1 0.567728 0.807849 0.127131
470 1 0.684583 0.813134 0.120643
474 1 0.805166 0.820161 0.123703
478 1 0.937075 0.813416 0.128431
485 1 0.115663 0.869761 0.136575
489 1 0.248602 0.873844 0.131228
493 1 0.384235 0.866208 0.12375
497 1 0.489701 0.877098 0.118371
501 1 0.625469 0.874574 0.118697
505 1 0.748735 0.878387 0.126272
509 1 0.872178 0.877736 0.124757
481 1 0.996352 0.875829 0.121412
486 1 0.180769 0.939932 0.126352
490 1 0.305715 0.940117 0.122426
494 1 0.432658 0.935726 0.130356
502 1 0.689461 0.947975 0.121185
506 1 0.80226 0.944588 0.128172
510 1 0.932972 0.942073 0.126442
482 1 0.0522021 0.93329 0.117748
265 1 0.242482 0.997119 0.113581
269 1 0.373387 0.00163977 0.140577
498 1 0.569603 0.933481 0.117994
281 1 0.739069 0.0159917 0.128812
263 1 0.172377 0.99594 0.180099
271 1 0.44321 0.00775838 0.182913
275 1 0.561565 0.0108687 0.184523
280 1 0.621421 0.0671219 0.182488
284 1 0.755643 0.0643698 0.197011
288 1 0.877084 0.0575256 0.186908
287 1 0.935358 0.00293205 0.185859
264 1 0.110621 0.0662804 0.183454
268 1 0.237562 0.06024 0.175537
272 1 0.37932 0.0618434 0.192202
276 1 0.498889 0.0636615 0.183585
311 1 0.682661 0.120989 0.178487
260 1 0.00522374 0.0650147 0.180744
295 1 0.18548 0.12912 0.171515
299 1 0.317785 0.122865 0.186586
303 1 0.450474 0.128217 0.192732
307 1 0.568829 0.128324 0.182947
315 1 0.818538 0.123758 0.189181
319 1 0.939416 0.117603 0.194121
292 1 0.00293562 0.188645 0.19775
296 1 0.126702 0.186345 0.183074
300 1 0.255268 0.176868 0.188081
304 1 0.388642 0.17851 0.194656
308 1 0.514779 0.18272 0.188135
312 1 0.632005 0.18628 0.187393
316 1 0.752318 0.202198 0.18784
320 1 0.878931 0.180308 0.194383
323 1 0.0616317 0.247858 0.181482
327 1 0.190526 0.243225 0.19252
331 1 0.316762 0.241902 0.193107
335 1 0.443867 0.247313 0.189062
339 1 0.559513 0.253415 0.178312
343 1 0.687411 0.255687 0.184711
347 1 0.811762 0.259306 0.19124
351 1 0.938902 0.242193 0.193129
324 1 0.00436022 0.326334 0.16171
328 1 0.136541 0.313086 0.189903
332 1 0.254931 0.308135 0.197402
336 1 0.371922 0.300517 0.183257
340 1 0.501476 0.307455 0.196451
344 1 0.627867 0.310672 0.169334
348 1 0.744396 0.31486 0.196322
352 1 0.878875 0.308392 0.188854
355 1 0.0683254 0.3768 0.178541
359 1 0.197791 0.372764 0.192889
363 1 0.312405 0.369099 0.199681
367 1 0.44007 0.371443 0.184131
371 1 0.565666 0.359266 0.189883
375 1 0.687549 0.376794 0.190033
379 1 0.816788 0.371271 0.191201
383 1 0.93932 0.372147 0.184125
360 1 0.136736 0.435654 0.183364
364 1 0.25138 0.442188 0.190294
368 1 0.385653 0.436235 0.1891
372 1 0.509966 0.427613 0.183701
376 1 0.626275 0.424791 0.1812
380 1 0.740957 0.440573 0.19594
384 1 0.885508 0.434175 0.186255
356 1 0.9912 0.434003 0.177848
395 1 0.311496 0.499545 0.180253
399 1 0.436429 0.504267 0.192681
403 1 0.570961 0.487826 0.185747
407 1 0.677886 0.498495 0.1864
411 1 0.799293 0.501511 0.190817
415 1 0.949564 0.502928 0.183391
387 1 0.0692366 0.496527 0.185494
391 1 0.19219 0.496612 0.192902
400 1 0.370351 0.566563 0.187921
388 1 0.00795713 0.564024 0.188199
392 1 0.122766 0.552576 0.182024
396 1 0.261109 0.564166 0.177358
404 1 0.50918 0.551018 0.189217
408 1 0.606854 0.562996 0.193987
412 1 0.739858 0.554163 0.19383
416 1 0.881396 0.550578 0.18213
419 1 0.0551188 0.631789 0.183069
423 1 0.186297 0.617181 0.174479
427 1 0.315743 0.627217 0.186046
431 1 0.43654 0.623611 0.182333
435 1 0.556288 0.627992 0.183544
439 1 0.691047 0.627776 0.191707
443 1 0.813614 0.614372 0.197729
447 1 0.926646 0.630143 0.18219
420 1 0.997329 0.688471 0.186735
424 1 0.129903 0.684797 0.190252
428 1 0.255683 0.683223 0.179031
432 1 0.375921 0.68952 0.186481
436 1 0.501717 0.70207 0.182931
440 1 0.612011 0.686658 0.183947
444 1 0.746277 0.689533 0.185517
448 1 0.874223 0.689923 0.184856
451 1 0.0618464 0.755434 0.195
455 1 0.187964 0.744156 0.192152
459 1 0.309336 0.748504 0.193396
463 1 0.436206 0.749995 0.182853
467 1 0.560528 0.756889 0.195965
471 1 0.687789 0.743075 0.180365
475 1 0.812115 0.750436 0.186027
479 1 0.936838 0.744729 0.188282
452 1 0.998031 0.80741 0.186555
456 1 0.122008 0.806711 0.199552
460 1 0.253584 0.810736 0.18754
464 1 0.366711 0.807358 0.190209
468 1 0.503546 0.814995 0.185426
472 1 0.630298 0.822595 0.195317
476 1 0.741386 0.822542 0.179966
480 1 0.878887 0.811979 0.185429
483 1 0.0544918 0.875812 0.194991
487 1 0.19005 0.869079 0.186423
491 1 0.316107 0.871799 0.17669
495 1 0.43958 0.8703 0.183759
499 1 0.560183 0.874525 0.179858
503 1 0.685447 0.886501 0.185091
507 1 0.822777 0.881208 0.184476
511 1 0.933925 0.880807 0.189115
484 1 0.996144 0.934818 0.180319
488 1 0.109021 0.938915 0.175967
492 1 0.248557 0.940881 0.186535
496 1 0.3671 0.940127 0.182822
500 1 0.509764 0.935178 0.180198
504 1 0.622143 0.932297 0.184831
508 1 0.742425 0.944649 0.184
512 1 0.874234 0.939955 0.185591
259 1 0.0480329 0.993619 0.178035
267 1 0.301202 0.00822473 0.178884
279 1 0.682513 0.00481932 0.189553
283 1 0.816383 0.00497845 0.190327
517 1 0.119706 0.991462 0.247859
525 1 0.38101 0.0053441 0.252475
529 1 0.489732 0.981015 0.246748
534 1 0.690626 0.0639363 0.248005
541 1 0.874084 0.9845 0.253866
513 1 0.000910665 0.992495 0.244439
514 1 0.0581635 0.0513591 0.24522
518 1 0.178812 0.0628717 0.236893
522 1 0.310617 0.0505136 0.250083
526 1 0.44247 0.0558626 0.244685
530 1 0.55373 0.0682331 0.252387
538 1 0.812286 0.0644477 0.254925
542 1 0.945369 0.0511128 0.247695
549 1 0.127125 0.125353 0.252009
553 1 0.26028 0.115926 0.250473
557 1 0.37382 0.106878 0.260065
561 1 0.501953 0.125271 0.253775
565 1 0.619024 0.120136 0.243595
569 1 0.746119 0.132278 0.239507
573 1 0.880927 0.112896 0.259053
545 1 0.000598469 0.116338 0.244982
546 1 0.0656014 0.182605 0.246598
550 1 0.191393 0.184188 0.247341
554 1 0.312997 0.176848 0.252575
558 1 0.450362 0.190347 0.250895
562 1 0.572361 0.18597 0.247642
566 1 0.689944 0.197181 0.24137
570 1 0.814298 0.19605 0.262893
574 1 0.947714 0.174319 0.255921
581 1 0.132917 0.244891 0.25536
585 1 0.258477 0.236115 0.251193
589 1 0.377162 0.238875 0.244713
593 1 0.51377 0.242391 0.251439
597 1 0.620448 0.252458 0.250114
601 1 0.742199 0.252454 0.259939
605 1 0.877474 0.246492 0.241921
577 1 0.00692217 0.266575 0.251609
578 1 0.0744637 0.318383 0.245312
582 1 0.182599 0.312788 0.25992
586 1 0.321233 0.308632 0.254227
590 1 0.422284 0.312045 0.252729
594 1 0.565424 0.309929 0.257571
598 1 0.682204 0.310125 0.259023
602 1 0.810803 0.302485 0.258902
606 1 0.938004 0.307613 0.250051
613 1 0.131828 0.377892 0.24559
617 1 0.254033 0.380425 0.25818
621 1 0.380996 0.380969 0.24463
625 1 0.501776 0.375243 0.241014
633 1 0.750544 0.366972 0.261714
637 1 0.873159 0.366219 0.248535
609 1 0.00225065 0.365707 0.23187
610 1 0.0559122 0.428885 0.238375
614 1 0.196462 0.438877 0.254436
618 1 0.317752 0.433807 0.247324
622 1 0.443669 0.439906 0.244949
629 1 0.625091 0.368348 0.25511
630 1 0.680011 0.43078 0.247717
634 1 0.804572 0.435486 0.256614
638 1 0.945414 0.447445 0.245799
653 1 0.381712 0.498946 0.259634
626 1 0.562011 0.434103 0.2515
661 1 0.626048 0.491468 0.253686
665 1 0.748612 0.49299 0.25745
645 1 0.13531 0.503191 0.25332
649 1 0.253681 0.497816 0.25896
650 1 0.321065 0.566143 0.251902
657 1 0.51011 0.497863 0.248915
669 1 0.887228 0.505987 0.245863
670 1 0.943217 0.566393 0.240658
641 1 0.010799 0.503177 0.243679
642 1 0.0718487 0.574616 0.243057
646 1 0.194094 0.570633 0.244098
654 1 0.430612 0.568085 0.261913
658 1 0.566852 0.560962 0.262143
662 1 0.677295 0.570834 0.244413
666 1 0.814612 0.565763 0.260529
673 1 0.00645921 0.626855 0.244996
677 1 0.132058 0.625885 0.247226
681 1 0.253571 0.626221 0.2436
685 1 0.383706 0.629984 0.243736
689 1 0.50035 0.620052 0.244696
693 1 0.616067 0.624915 0.245477
697 1 0.746892 0.619852 0.250065
701 1 0.874818 0.623389 0.250213
674 1 0.0646498 0.687743 0.245681
678 1 0.186842 0.692474 0.257055
682 1 0.316783 0.678058 0.249161
686 1 0.442403 0.68533 0.253909
690 1 0.565522 0.687623 0.251446
694 1 0.683218 0.689799 0.241019
698 1 0.812752 0.682447 0.243975
702 1 0.938633 0.684629 0.252449
709 1 0.124076 0.748231 0.251007
713 1 0.252853 0.737747 0.246752
717 1 0.373268 0.745119 0.248344
721 1 0.495601 0.74435 0.254043
725 1 0.627311 0.752162 0.242705
729 1 0.756497 0.753016 0.24458
733 1 0.860262 0.755703 0.247437
705 1 0.0035948 0.745606 0.247629
706 1 0.0605962 0.811771 0.250636
710 1 0.180814 0.816988 0.253983
714 1 0.30776 0.807366 0.247073
718 1 0.42795 0.822338 0.250002
722 1 0.566193 0.825716 0.243596
726 1 0.691345 0.817426 0.249713
730 1 0.808481 0.820696 0.234189
734 1 0.938935 0.801562 0.246339
737 1 0.993743 0.87622 0.246238
741 1 0.123401 0.869787 0.258201
745 1 0.24378 0.88135 0.25284
749 1 0.364115 0.871059 0.237186
753 1 0.496241 0.876548 0.249283
757 1 0.624702 0.885348 0.256883
761 1 0.747481 0.87408 0.24372
765 1 0.876887 0.866415 0.248288
738 1 0.0675047 0.933158 0.245677
746 1 0.303976 0.964454 0.248166
750 1 0.4302 0.934996 0.248348
754 1 0.568379 0.940073 0.242046
758 1 0.685191 0.944708 0.250998
762 1 0.801245 0.937918 0.237007
766 1 0.938953 0.934997 0.256412
742 1 0.179615 0.934697 0.248602
521 1 0.233038 0.00467162 0.247206
533 1 0.628457 0.00247367 0.259591
537 1 0.747652 0.00305505 0.260722
523 1 0.323702 0.00624411 0.31461
527 1 0.44226 0.988734 0.316364
531 1 0.550261 0.998014 0.294182
536 1 0.618547 0.0666776 0.306794
540 1 0.750553 0.062884 0.312907
516 1 -0.000766017 0.043787 0.302359
520 1 0.115252 0.0539983 0.301175
524 1 0.255947 0.0557779 0.305727
528 1 0.380133 0.06385 0.326095
532 1 0.493241 0.0611893 0.316756
567 1 0.683181 0.124356 0.311171
544 1 0.881756 0.0569309 0.320472
547 1 0.0610686 0.116431 0.303487
551 1 0.195086 0.110708 0.296396
555 1 0.315959 0.121791 0.318974
559 1 0.450412 0.136539 0.322619
563 1 0.553932 0.125176 0.311066
571 1 0.803751 0.127304 0.318409
575 1 0.942529 0.118712 0.315669
548 1 0.998384 0.186369 0.319177
552 1 0.118007 0.178603 0.319046
556 1 0.257389 0.188973 0.314149
560 1 0.386656 0.18235 0.300481
564 1 0.507484 0.194827 0.323475
568 1 0.623173 0.18829 0.322524
572 1 0.739641 0.184319 0.309339
576 1 0.886496 0.179141 0.30795
579 1 0.0649103 0.240127 0.311275
583 1 0.193589 0.252091 0.316626
587 1 0.310343 0.261066 0.326936
591 1 0.428843 0.252393 0.309684
595 1 0.569983 0.250333 0.315019
599 1 0.686301 0.249364 0.318934
603 1 0.813123 0.253041 0.3239
607 1 0.939293 0.241947 0.30631
584 1 0.120753 0.313573 0.312594
588 1 0.255523 0.318452 0.316544
592 1 0.368496 0.324071 0.3164
596 1 0.504628 0.311793 0.318697
600 1 0.621698 0.31659 0.316245
604 1 0.743674 0.309895 0.315259
608 1 0.875721 0.311896 0.314537
580 1 0.994137 0.329089 0.298598
611 1 0.0649069 0.374615 0.307545
615 1 0.181814 0.372071 0.318631
619 1 0.306954 0.37962 0.320571
623 1 0.438991 0.372015 0.308143
627 1 0.557882 0.38318 0.321235
631 1 0.682647 0.370173 0.321186
635 1 0.815912 0.367264 0.306937
639 1 0.932531 0.389707 0.297508
612 1 0.00279483 0.438577 0.305289
616 1 0.12594 0.435935 0.304841
620 1 0.258054 0.445276 0.327408
624 1 0.385571 0.434887 0.311059
628 1 0.501101 0.434494 0.311873
632 1 0.620117 0.42998 0.310492
636 1 0.744521 0.429637 0.322408
640 1 0.876169 0.451814 0.305698
643 1 0.0602024 0.501872 0.309677
647 1 0.195349 0.495715 0.313783
651 1 0.323859 0.498169 0.320479
663 1 0.683099 0.490177 0.313604
671 1 0.944113 0.511266 0.308315
655 1 0.451128 0.503298 0.308443
659 1 0.550845 0.504047 0.318599
667 1 0.811741 0.50201 0.314199
648 1 0.135978 0.565935 0.306199
652 1 0.251466 0.568831 0.315969
656 1 0.375732 0.562581 0.326295
660 1 0.494516 0.568762 0.308512
664 1 0.629838 0.557071 0.312004
668 1 0.731873 0.555554 0.308854
672 1 0.879491 0.563708 0.314837
644 1 0.00978292 0.567042 0.303611
675 1 0.071658 0.62571 0.309603
679 1 0.18509 0.627005 0.309422
683 1 0.311075 0.619895 0.312111
687 1 0.435659 0.618651 0.324141
691 1 0.560671 0.623968 0.314651
695 1 0.682628 0.628023 0.314724
699 1 0.810888 0.63027 0.306778
703 1 0.935886 0.626064 0.318384
680 1 0.123782 0.688883 0.305342
684 1 0.251347 0.676143 0.309623
688 1 0.376408 0.673073 0.319601
692 1 0.505105 0.686107 0.313592
696 1 0.621712 0.677504 0.312836
700 1 0.738559 0.684294 0.300912
704 1 0.86961 0.682892 0.307011
676 1 0.00890008 0.685153 0.302638
707 1 0.0679453 0.75083 0.307125
711 1 0.188835 0.757482 0.309824
715 1 0.307881 0.750149 0.310549
719 1 0.432712 0.735615 0.319192
723 1 0.563571 0.742002 0.309752
727 1 0.693741 0.755207 0.30147
731 1 0.799855 0.738225 0.309079
735 1 0.938513 0.750486 0.306799
712 1 0.127764 0.811624 0.322531
716 1 0.247905 0.816842 0.312247
720 1 0.384505 0.815365 0.31661
724 1 0.503929 0.80429 0.319275
728 1 0.631724 0.811556 0.306877
732 1 0.753828 0.811529 0.308587
736 1 0.87115 0.812434 0.315913
708 1 0.000644023 0.80499 0.302299
739 1 0.0581611 0.877754 0.307141
743 1 0.187182 0.881151 0.313362
747 1 0.327708 0.869838 0.310216
751 1 0.433738 0.882935 0.319418
755 1 0.557638 0.873519 0.309887
759 1 0.694665 0.871092 0.311028
763 1 0.80387 0.889807 0.305259
767 1 0.939741 0.854261 0.307401
740 1 0.998582 0.930825 0.313393
744 1 0.115237 0.93399 0.311718
748 1 0.2529 0.945287 0.31312
752 1 0.3704 0.936647 0.311901
760 1 0.639698 0.929647 0.32888
764 1 0.745439 0.943258 0.3158
768 1 0.878283 0.929537 0.312158
515 1 0.0603946 0.987835 0.306588
519 1 0.172389 0.994561 0.315055
756 1 0.502896 0.932613 0.314319
535 1 0.682396 0.99602 0.317464
539 1 0.814072 0.00184758 0.308847
543 1 0.935394 0.998166 0.31203
769 1 0.00265339 0.992719 0.371462
773 1 0.114068 0.998275 0.369145
774 1 0.199598 0.0567884 0.365317
790 1 0.685415 0.0663525 0.369075
797 1 0.877427 0.00344563 0.381243
770 1 0.0606543 0.0668516 0.375715
778 1 0.31238 0.0605363 0.380812
782 1 0.439352 0.0681353 0.378238
786 1 0.559433 0.053491 0.367359
794 1 0.813451 0.0550233 0.370615
798 1 0.945199 0.0609703 0.37354
801 1 0.996268 0.127785 0.379515
805 1 0.122298 0.119401 0.373495
809 1 0.25441 0.120344 0.3754
813 1 0.377992 0.134983 0.372719
817 1 0.511939 0.119332 0.380701
821 1 0.622146 0.12108 0.378296
825 1 0.753096 0.120724 0.384412
829 1 0.884232 0.117418 0.37321
802 1 0.0549462 0.186654 0.381752
806 1 0.18902 0.180603 0.361127
810 1 0.307639 0.184953 0.378382
814 1 0.443478 0.196862 0.387545
818 1 0.566232 0.183779 0.380164
822 1 0.685199 0.188318 0.377647
826 1 0.82212 0.181806 0.376359
830 1 0.937222 0.184715 0.377125
837 1 0.128072 0.245743 0.36688
841 1 0.252169 0.24221 0.380955
845 1 0.369735 0.258219 0.384529
849 1 0.499691 0.256505 0.378674
853 1 0.624926 0.251467 0.376998
857 1 0.749514 0.24432 0.374787
861 1 0.877238 0.236106 0.369167
833 1 0.00372004 0.258784 0.36648
834 1 0.0587332 0.321296 0.369703
838 1 0.182872 0.311919 0.377919
842 1 0.316792 0.325856 0.37899
846 1 0.43534 0.311035 0.372174
850 1 0.562482 0.316865 0.384178
854 1 0.678551 0.31241 0.378334
858 1 0.815788 0.311675 0.378999
862 1 0.940836 0.30857 0.363349
869 1 0.122987 0.378739 0.376709
877 1 0.377106 0.377044 0.377418
881 1 0.50384 0.37583 0.378791
885 1 0.617614 0.372893 0.375926
889 1 0.755801 0.373226 0.379401
893 1 0.877032 0.378915 0.361786
865 1 0.999749 0.374629 0.372375
866 1 0.0710694 0.440208 0.368117
870 1 0.183767 0.433566 0.378993
874 1 0.323367 0.442346 0.383954
882 1 0.558581 0.448478 0.381544
886 1 0.668186 0.433481 0.381153
890 1 0.814852 0.441707 0.364791
901 1 0.127313 0.507573 0.359933
905 1 0.247095 0.506815 0.379638
878 1 0.439241 0.438426 0.374331
913 1 0.498571 0.504838 0.379324
917 1 0.624443 0.498114 0.367081
925 1 0.892243 0.503838 0.375133
894 1 0.936618 0.432392 0.366135
897 1 0.00551472 0.500902 0.383278
902 1 0.185718 0.568246 0.37758
909 1 0.383349 0.499515 0.372793
921 1 0.752404 0.492577 0.369817
926 1 0.937972 0.574087 0.379057
898 1 0.0657157 0.563526 0.371366
906 1 0.30949 0.567797 0.377837
910 1 0.441294 0.565686 0.386723
914 1 0.55785 0.567412 0.373928
918 1 0.687363 0.566967 0.380493
922 1 0.808648 0.555883 0.371524
933 1 0.133334 0.639842 0.36664
937 1 0.24745 0.625303 0.376197
941 1 0.374959 0.622486 0.38862
945 1 0.500004 0.632157 0.372349
949 1 0.623653 0.618152 0.368688
953 1 0.749235 0.620534 0.374358
957 1 0.868657 0.627721 0.373001
929 1 0.00885723 0.628169 0.363713
930 1 0.0624078 0.698858 0.36807
934 1 0.197847 0.699049 0.366873
938 1 0.304062 0.693022 0.369351
942 1 0.430739 0.685665 0.380226
946 1 0.568014 0.683384 0.382395
950 1 0.686151 0.692283 0.366546
954 1 0.80246 0.685853 0.372019
958 1 0.952743 0.692111 0.372209
965 1 0.128132 0.748067 0.372741
969 1 0.250913 0.760009 0.369343
973 1 0.369923 0.754329 0.374247
977 1 0.493157 0.735488 0.378916
981 1 0.62833 0.748173 0.357412
985 1 0.744214 0.756031 0.369223
989 1 0.871896 0.744283 0.365398
961 1 0.992608 0.756703 0.372496
962 1 0.0631273 0.80935 0.369209
966 1 0.198375 0.827331 0.374954
970 1 0.311424 0.819861 0.370374
974 1 0.440203 0.811758 0.373717
978 1 0.563861 0.812005 0.372328
982 1 0.689907 0.813624 0.375161
986 1 0.809504 0.807531 0.376958
990 1 0.933729 0.807378 0.379253
993 1 0.998458 0.876606 0.368174
997 1 0.119543 0.875197 0.374021
1001 1 0.251758 0.887287 0.36957
1005 1 0.377514 0.871639 0.383223
1009 1 0.500716 0.870736 0.371176
1013 1 0.622357 0.865271 0.37811
1017 1 0.751319 0.872472 0.366281
1021 1 0.865251 0.870264 0.377799
998 1 0.185786 0.9306 0.380148
1002 1 0.320049 0.937187 0.377564
1006 1 0.447712 0.9353 0.390061
1010 1 0.568001 0.935866 0.371163
1014 1 0.695053 0.94016 0.388253
1018 1 0.806257 0.940737 0.373867
1022 1 0.936457 0.934398 0.375297
994 1 0.0613352 0.934921 0.371641
777 1 0.261855 0.994611 0.373081
781 1 0.383202 0.990307 0.372698
785 1 0.504948 0.995829 0.36672
789 1 0.623964 0.989498 0.381295
793 1 0.75163 0.0020421 0.373204
783 1 0.443583 0.00509046 0.432401
788 1 0.501331 0.0596324 0.437907
791 1 0.676276 0.00171853 0.442913
799 1 0.938852 0.000506431 0.43399
780 1 0.250946 0.0538274 0.434707
784 1 0.383185 0.0840474 0.431889
792 1 0.620547 0.0628 0.441038
796 1 0.751015 0.0588158 0.449942
800 1 0.881084 0.063765 0.438013
772 1 0.997925 0.0670727 0.443477
803 1 0.0536331 0.126525 0.432697
807 1 0.187671 0.128332 0.425612
811 1 0.318222 0.126488 0.448273
815 1 0.459299 0.124437 0.4479
823 1 0.681628 0.127285 0.432011
827 1 0.815032 0.120457 0.444302
831 1 0.936679 0.119711 0.442028
808 1 0.127786 0.180675 0.431959
812 1 0.250007 0.19269 0.443973
820 1 0.506446 0.18704 0.434747
824 1 0.623148 0.190483 0.4393
828 1 0.759027 0.186066 0.44266
832 1 0.873805 0.189916 0.437279
804 1 0.9972 0.192339 0.433759
835 1 0.0692073 0.24302 0.44466
839 1 0.185827 0.252067 0.434833
843 1 0.308947 0.243703 0.440582
847 1 0.437586 0.261801 0.442878
851 1 0.567157 0.251008 0.432477
855 1 0.68327 0.249208 0.432198
859 1 0.809016 0.244147 0.438358
863 1 0.946882 0.253947 0.438567
840 1 0.120503 0.313404 0.428104
844 1 0.247693 0.307637 0.433274
856 1 0.631303 0.330319 0.439087
860 1 0.745697 0.311421 0.435396
864 1 0.877976 0.307408 0.436071
836 1 0.00827803 0.309283 0.440479
867 1 0.0650716 0.380666 0.434421
871 1 0.184696 0.372429 0.435253
873 1 0.246689 0.372421 0.377745
875 1 0.305914 0.38134 0.441237
879 1 0.438806 0.364302 0.433585
883 1 0.556766 0.378004 0.440998
891 1 0.822675 0.378774 0.427316
895 1 0.939247 0.361541 0.427093
872 1 0.125357 0.431948 0.448552
880 1 0.390048 0.429142 0.435322
884 1 0.48594 0.438203 0.448478
896 1 0.886342 0.428546 0.428213
911 1 0.454297 0.511137 0.449136
927 1 0.943834 0.50335 0.437854
899 1 0.0778517 0.500593 0.428305
907 1 0.310634 0.502662 0.434244
916 1 0.51333 0.568193 0.443269
915 1 0.569633 0.513995 0.432147
919 1 0.692331 0.495334 0.440887
923 1 0.810601 0.493983 0.428622
904 1 0.124105 0.581283 0.432144
912 1 0.374168 0.558834 0.442061
947 1 0.570957 0.632614 0.444415
920 1 0.622122 0.573271 0.44047
924 1 0.759381 0.560212 0.436264
928 1 0.867317 0.555781 0.436461
900 1 -0.00098174 0.569758 0.433352
931 1 0.0561107 0.625855 0.425408
935 1 0.191232 0.628836 0.433554
939 1 0.307021 0.628507 0.435053
951 1 0.678696 0.632451 0.428624
955 1 0.817209 0.627346 0.434577
959 1 0.933849 0.626303 0.443217
936 1 0.131076 0.690312 0.43945