ITEM: TIMESTEP
100000
ITEM: NUMBER OF ATOMS
2048
ITEM: BOX BOUNDS pp pp pp
0.0000000000000000e+00 1.3679807573413575e+01
0.0000000000000000e+00 1.3679807573413575e+01
0.0000000000000000e+00 1.3679807573413575e+01
ITEM: ATOMS id type xs ys zs
113 1 0.0121677 0.000249077 0.0374261
637 1 0.309664 0.0447566 0.0382261
1187 1 0.387575 0.0289396 0.0028579
1584 1 0.463405 0.00170516 0.0315807
1586 1 0.534787 0.0123982 0.0249883
39 1 0.376362 0.0947277 0.00809828
1914 1 0.44367 0.0810456 0.0336271
159 1 0.522728 0.0835278 0.00333487
1751 1 0.652525 0.0731374 0.0130468
1975 1 0.883792 0.0653465 0.0389154
1555 1 0.22154 0.127412 0.0139333
1162 1 0.580914 0.133832 0.0276438
707 1 0.678837 0.140399 0.0154683
468 1 0.844129 0.124148 0.0389111
452 1 0.928425 0.138497 0.0411481
1492 1 0.11157 0.142982 0.0164254
449 1 0.178764 0.182037 0.00517328
511 1 0.282298 0.152269 0.0424401
1115 1 0.484926 0.167365 0.0164244
1668 1 0.35607 0.192474 0.0222604
744 1 0.471184 0.230001 0.0455087
123 1 0.6409 0.216289 0.0318868
597 1 0.722369 0.196978 0.00398484
1826 1 0.214896 0.250223 0.0237209
83 1 0.39977 0.274383 0.0237249
663 1 0.710726 0.273884 0.0101204
1324 1 0.976138 0.283672 0.000835316
519 1 0.14992 0.291212 0.0087855
1763 1 0.290415 0.319305 0.00570637
525 1 0.511116 0.309756 0.0146266
36 1 0.904425 0.324761 0.00775028
885 1 0.60502 0.367544 0.0361327
751 1 0.962843 0.358917 0.0404668
76 1 0.213911 0.412458 0.0301374
534 1 0.559909 0.428118 0.0457421
1304 1 0.790954 0.407912 0.0316233
898 1 0.892595 0.420058 0.0349036
419 1 0.140613 0.438187 0.0230152
1088 1 0.367506 0.435015 0.0412429
316 1 0.626754 0.451145 0.038896
224 1 0.958277 0.449775 0.0306728
205 1 0.132463 0.517017 0.0380178
473 1 0.223447 0.482085 0.00876371
1443 1 0.076508 0.552163 0.00776593
975 1 0.307699 0.551438 0.023349
829 1 0.40395 0.566583 0.000220187
1610 1 0.688511 0.532375 0.0377915
10 1 0.834729 0.524263 0.0136083
1546 1 0.00501059 0.57853 0.0435096
850 1 0.127617 0.591897 0.0435893
108 1 0.771319 0.605437 0.00541376
410 1 0.843841 0.611584 0.0135144
257 1 0.224387 0.63428 0.0305179
811 1 0.363001 0.643455 0.0151016
2018 1 0.492695 0.659709 0.0468457
486 1 0.566498 0.652343 0.0408315
1325 1 0.197072 0.70921 0.0112813
1493 1 0.292924 0.667234 0.00288357
1688 1 0.459882 0.710165 0.00720056
523 1 0.848445 0.70339 0.0150216
1257 1 0.930495 0.708095 0.0059887
1596 1 0.0219723 0.744742 0.0298955
493 1 0.129222 0.752351 0.00665205
1544 1 0.26067 0.739865 0.0392714
759 1 0.641419 0.74677 0.0363899
74 1 0.722447 0.751202 0.0389703
1980 1 0.186439 0.768914 0.0470272
1447 1 0.31738 0.808565 0.0113102
1277 1 0.515538 0.787012 0.00825617
1067 1 0.586902 0.763787 0.000272135
761 1 0.0692518 0.82291 0.0344186
2005 1 0.143655 0.822588 0.0148671
1218 1 0.441905 0.815286 0.0211173
12 1 0.570456 0.836995 0.0427512
1819 1 0.702143 0.843529 0.0101264
1554 1 0.849989 0.811162 0.0359695
951 1 0.025305 0.883364 0.0239527
1267 1 0.190391 0.866191 0.0453451
16 1 0.251667 0.887463 0.00756138
1652 1 0.326065 0.885879 0.0334506
1651 1 0.84099 0.886025 0.0105937
1722 1 0.934851 0.879328 0.0352395
322 1 0.192841 0.926841 0.00868254
1158 1 0.488174 0.905496 0.0115601
2031 1 0.730374 0.927358 0.00849346
1881 1 0.152937 0.980109 0.0242716
929 1 0.266633 0.963013 0.0459243
570 1 0.339883 0.984124 0.044203
404 1 0.606069 0.984007 0.00461841
480 1 0.760343 0.995011 0.0110995
464 1 0.844453 0.962081 0.00673567
186 1 0.955995 0.96151 0.0132626
938 1 0.212447 0.0137303 0.0639721
101 1 0.696878 0.00201309 0.0610781
58 1 0.851278 0.0223617 0.0842751
741 1 0.0474894 0.0761129 0.0549152
7 1 0.117189 0.051427 0.0495864
1732 1 0.3884 0.0755488 0.0801181
1125 1 0.521679 0.05484 0.0815833
1057 1 0.612571 0.0619305 0.0760641
1890 1 0.711161 0.0868313 0.0942366
1388 1 0.971413 0.0507672 0.0745258
764 1 0.181628 0.106252 0.0774712
1237 1 0.26278 0.0956407 0.072631
801 1 0.774817 0.122576 0.0512092
1275 1 0.0436393 0.161046 0.0733332
1500 1 0.122939 0.149324 0.0903338
140 1 0.344368 0.172641 0.0901393
1618 1 0.655584 0.172764 0.0884347
1662 1 0.0925209 0.216386 0.0494333
2010 1 0.238093 0.191479 0.0829076
1348 1 0.416862 0.190706 0.0682007
669 1 0.580676 0.20155 0.0694528
882 1 0.697583 0.231735 0.0803741
4 1 0.790544 0.19793 0.0586368
1489 1 0.898003 0.214215 0.0535357
1842 1 0.972997 0.22229 0.0521275
345 1 0.0115537 0.277655 0.0620176
573 1 0.317259 0.242744 0.0791107
189 1 0.559529 0.274336 0.072217
655 1 0.639126 0.274348 0.0766884
562 1 0.765514 0.263458 0.0859804
1295 1 0.831141 0.254396 0.0485737
1008 1 0.175456 0.303452 0.0829152
1387 1 0.344286 0.31071 0.0561304
1092 1 0.455542 0.292759 0.0658186
492 1 0.794024 0.319154 0.0533707
650 1 0.905131 0.285776 0.0746325
1156 1 0.0953132 0.360084 0.0485206
537 1 0.232696 0.375964 0.0947632
194 1 0.308455 0.380487 0.0757402
771 1 0.391135 0.369909 0.0499921
117 1 0.672714 0.333392 0.0501028
712 1 0.848128 0.377018 0.0727349
587 1 0.0405963 0.40486 0.0519377
203 1 0.166465 0.3821 0.0766878
1137 1 0.434367 0.420966 0.0739639
1018 1 0.501063 0.382291 0.0568068
2048 1 0.70269 0.416258 0.0646301
1055 1 0.186073 0.449633 0.0850013
1009 1 0.299484 0.463809 0.0651202
27 1 0.502485 0.454283 0.0651355
1463 1 0.045767 0.480194 0.0573453
632 1 0.364381 0.509877 0.0485319
517 1 0.441113 0.498709 0.0502903
214 1 0.777893 0.485953 0.0498151
1283 1 0.858663 0.476608 0.0628331
606 1 0.933409 0.513841 0.0633519
964 1 0.209903 0.541597 0.0546134
1522 1 0.563086 0.529709 0.0476899
2037 1 0.624886 0.548268 0.0894194
1370 1 0.75302 0.560872 0.0583742
450 1 0.808141 0.537796 0.0932778
1030 1 0.0692152 0.576867 0.0855121
182 1 0.433645 0.598958 0.0936581
1866 1 0.528352 0.594189 0.05914
1923 1 0.687909 0.603657 0.0635599
160 1 0.904319 0.579594 0.0611811
1542 1 0.0236708 0.644388 0.0515933
1157 1 0.156459 0.64712 0.0684952
1758 1 0.310728 0.623681 0.0621603
662 1 0.629859 0.643271 0.076068
326 1 0.799518 0.620498 0.07714
394 1 0.896929 0.655533 0.0476996
276 1 0.960394 0.627666 0.07302
1810 1 0.0953276 0.692681 0.064418
1264 1 0.264803 0.676713 0.074055
1486 1 0.350252 0.710143 0.0507332
1038 1 0.415942 0.68079 0.0688398
1319 1 0.54436 0.697617 0.0918683
804 1 0.754045 0.669506 0.0527114
1022 1 0.97079 0.700605 0.0913562
324 1 0.409802 0.754037 0.071472
1811 1 0.490992 0.734147 0.0679701
1064 1 0.831556 0.723323 0.0804862
1509 1 0.127755 0.774511 0.0905424
31 1 0.313365 0.782926 0.0771222
107 1 0.581911 0.762297 0.0791287
709 1 0.875423 0.785158 0.0945885
1675 1 0.934361 0.775961 0.0557141
1726 1 0.124198 0.853735 0.0774483
497 1 0.241119 0.812266 0.0487725
1857 1 0.375574 0.824362 0.052771
349 1 0.498794 0.839839 0.0615182
576 1 0.779996 0.818081 0.0578255
690 1 0.985813 0.831532 0.0816499
1833 1 0.241258 0.891557 0.0905813
1996 1 0.539985 0.898128 0.0615185
1036 1 0.643688 0.860033 0.0491963
206 1 0.733694 0.876439 0.0942284
1713 1 0.105979 0.926479 0.0584435
256 1 0.176425 0.944307 0.0882241
783 1 0.387726 0.92989 0.0535326
320 1 0.463392 0.941072 0.0806327
1343 1 0.583439 0.950027 0.068073
956 1 0.672804 0.939131 0.0701202
1270 1 0.781711 0.927669 0.0557129
774 1 0.0796281 0.986449 0.0885351
991 1 0.92876 0.973398 0.0849231
1797 1 0.0316658 0.0415171 0.119648
579 1 0.119984 0.0431413 0.132614
200 1 0.273511 0.0318215 0.107578
398 1 0.359043 0.0114222 0.106091
1514 1 0.571227 0.0443355 0.135269
1255 1 0.62454 0.000176985 0.112987
14 1 0.327312 0.07187 0.138753
1251 1 0.451701 0.0574724 0.103507
244 1 0.795617 0.0661462 0.0980248
509 1 0.165916 0.137759 0.142176
75 1 0.408469 0.139244 0.138933
18 1 0.564022 0.11352 0.0966251
841 1 0.909167 0.107398 0.1019
1569 1 0.489764 0.163187 0.10832
1082 1 0.837072 0.152003 0.106777
2021 1 0.956024 0.160406 0.103713
794 1 0.0353821 0.199296 0.138691
1716 1 0.103169 0.211661 0.121184
1773 1 0.174117 0.232144 0.109256
2032 1 0.494044 0.23278 0.114861
678 1 0.869943 0.226093 0.114773
2047 1 0.394395 0.247266 0.0956604
376 1 0.643546 0.242238 0.1423
1543 1 0.97269 0.249328 0.140525
2004 1 0.105338 0.305643 0.132446
1582 1 0.232123 0.307751 0.127881
133 1 0.519993 0.301333 0.135839
1965 1 0.808118 0.322555 0.125819
784 1 0.0279043 0.361618 0.129012
1578 1 0.443962 0.361791 0.115884
1686 1 0.528567 0.373985 0.12131
1740 1 0.683648 0.358405 0.114639
46 1 0.766779 0.375762 0.0998697
1922 1 0.954267 0.335272 0.123067
254 1 0.0958381 0.407264 0.118943
715 1 0.637163 0.406394 0.107459
516 1 0.890764 0.395226 0.131337
400 1 0.959875 0.410083 0.11278
252 1 0.350333 0.434226 0.108788
1551 1 0.432142 0.465752 0.130765
412 1 0.580372 0.460062 0.106823
1741 1 0.724587 0.451696 0.137371
893 1 0.815348 0.47257 0.132277
1273 1 0.117842 0.493798 0.10463
1307 1 0.253947 0.501511 0.109259
1063 1 0.522111 0.509549 0.117584
1642 1 0.665401 0.504528 0.121412
1235 1 0.971948 0.518784 0.127442
1337 1 0.171602 0.539472 0.111997
1415 1 0.331032 0.561803 0.111357
592 1 0.40436 0.535932 0.104469
1027 1 0.878976 0.531826 0.114496
1503 1 0.114163 0.576802 0.138135
1927 1 0.243872 0.596905 0.0979049
559 1 0.599394 0.594248 0.133394
666 1 0.679656 0.609979 0.13524
532 1 0.846061 0.59241 0.131762
1065 1 0.919724 0.599161 0.136871
838 1 0.998583 0.584393 0.137687
307 1 0.0386112 0.640646 0.141739
1247 1 0.225599 0.66503 0.131556
484 1 0.383692 0.630912 0.131407
481 1 0.503501 0.626941 0.134324
172 1 0.752503 0.625133 0.130113
1562 1 0.159971 0.711968 0.125285
1907 1 0.331055 0.709024 0.117588
1823 1 0.456401 0.682109 0.127124
1847 1 0.699028 0.67674 0.142184
1303 1 0.876658 0.675524 0.113894
1007 1 0.02925 0.75765 0.0994979
1556 1 0.26266 0.729691 0.125976
881 1 0.645056 0.722777 0.105534
110 1 0.727435 0.746168 0.114327
1365 1 0.951831 0.758682 0.125848
1391 1 0.207206 0.793287 0.109761
13 1 0.462651 0.770881 0.139752
2000 1 0.536644 0.768264 0.131646
321 1 0.696033 0.805109 0.0983606
677 1 0.340284 0.831848 0.133452
1150 1 0.44271 0.839075 0.115911
1752 1 0.590176 0.82218 0.109848
603 1 0.906324 0.840461 0.124256
95 1 0.0438014 0.892535 0.100087
1908 1 0.123034 0.904607 0.127982
353 1 0.396215 0.891883 0.135165
1587 1 0.609107 0.894062 0.103121
613 1 0.675956 0.873122 0.138044
396 1 0.802048 0.878696 0.103469
369 1 0.976321 0.895459 0.122401
1778 1 0.351555 0.946711 0.131954
738 1 0.544272 0.911165 0.13246
375 1 0.859039 0.921612 0.097238
143 1 0.00560542 0.961542 0.103848
659 1 0.420943 0.975614 0.12934
1341 1 0.67135 0.955919 0.140525
1045 1 0.76096 0.988244 0.0954375
1677 1 0.201758 0.0259753 0.149951
742 1 0.51678 0.016637 0.188987
97 1 0.7002 0.0183112 0.159448
162 1 0.790728 0.00568327 0.176494
1046 1 0.9177 0.0452365 0.144351
633 1 0.995301 0.0173508 0.176637
249 1 0.0726023 0.0540825 0.186049
1566 1 0.241839 0.0759925 0.173345
1612 1 0.387441 0.0510485 0.165934
1106 1 0.455866 0.0711046 0.181338
156 1 0.654789 0.074892 0.166761
1748 1 0.838182 0.0716218 0.155635
15 1 6.04692e-05 0.118024 0.143047
1246 1 0.0966212 0.112673 0.158631
1044 1 0.521676 0.0998002 0.163196
1381 1 0.594779 0.11904 0.16973
1454 1 0.739733 0.136828 0.181072
1837 1 0.886284 0.11983 0.17904
1124 1 0.236495 0.147484 0.171023
2030 1 0.658479 0.149496 0.154587
66 1 0.271276 0.211888 0.149595
748 1 0.344932 0.206243 0.154325
1272 1 0.442726 0.210592 0.169971
476 1 0.561672 0.235325 0.14523
210 1 0.734531 0.226628 0.151161
239 1 0.811717 0.235361 0.163718
1413 1 0.920786 0.196474 0.159256
1041 1 0.0478364 0.270826 0.15747
858 1 0.319549 0.273664 0.143477
1213 1 0.390635 0.272055 0.166016
1093 1 0.87223 0.268296 0.181156
1087 1 0.160951 0.31302 0.175613
2026 1 0.462649 0.295556 0.174148
636 1 0.59146 0.304043 0.156876
48 1 0.735694 0.306523 0.150557
432 1 0.936914 0.306669 0.190284
1210 1 0.208291 0.363959 0.172701
1909 1 0.285118 0.356126 0.143563
1780 1 0.377558 0.370467 0.148332
463 1 0.660406 0.369225 0.184034
444 1 0.80074 0.361991 0.187209
1711 1 0.0438293 0.425619 0.17365
1934 1 0.438603 0.413472 0.180434
915 1 0.732002 0.388467 0.186645
1482 1 0.0964312 0.470173 0.1794
134 1 0.179368 0.433218 0.158273
545 1 0.269847 0.454587 0.166989
488 1 0.527249 0.448561 0.153046
857 1 0.770347 0.450694 0.189442
1457 1 0.0391958 0.520959 0.1775
1718 1 0.326391 0.509308 0.161307
1956 1 0.488306 0.501664 0.177445
1976 1 0.791602 0.521573 0.189431
671 1 0.891894 0.478751 0.161013
944 1 0.457873 0.563 0.151836
50 1 0.722719 0.552274 0.153537
844 1 0.94668 0.545912 0.189651
1229 1 0.235545 0.592125 0.170803
609 1 0.32204 0.58292 0.185593
1139 1 0.110536 0.65704 0.150259
1128 1 0.178618 0.652985 0.188254
434 1 0.29368 0.638034 0.142958
1622 1 0.6347 0.656631 0.172655
501 1 0.969348 0.655826 0.159024
942 1 0.0632953 0.713698 0.143559
1775 1 0.559573 0.708903 0.177382
1561 1 0.795284 0.704122 0.148737
2025 1 0.892372 0.714108 0.179495
1412 1 0.309729 0.749592 0.175777
1625 1 0.388448 0.741705 0.145176
872 1 0.067957 0.791168 0.159512
1097 1 0.268484 0.797347 0.148522
1575 1 0.392442 0.807659 0.170872
180 1 0.644131 0.791234 0.158425
1745 1 0.820642 0.779001 0.150961
1305 1 0.205056 0.854044 0.144556
1402 1 0.507975 0.829679 0.151771
688 1 0.723901 0.815185 0.164895
547 1 0.83697 0.839436 0.181356
954 1 0.0343908 0.88208 0.169931
125 1 0.125824 0.86392 0.186914
827 1 0.262395 0.87265 0.179309
520 1 0.618671 0.882862 0.186509
445 1 0.216299 0.931784 0.147283
1838 1 0.451262 0.909606 0.176275
1071 1 0.773756 0.923466 0.149245
17 1 0.838581 0.908646 0.172076
763 1 0.918131 0.934568 0.145175
1746 1 0.984745 0.945614 0.168195
103 1 0.0561344 0.958512 0.176029
96 1 0.288074 0.98352 0.175087
1666 1 0.589263 0.96162 0.166526
91 1 0.859907 0.98868 0.167274
1469 1 0.210039 0.0437941 0.229108
499 1 0.00563762 0.0734553 0.217485
1010 1 0.339303 0.0660758 0.216345
1091 1 0.752362 0.0626404 0.201601
950 1 0.840686 0.0823033 0.229102
93 1 0.935196 0.0541763 0.21843
518 1 0.0281684 0.142627 0.205509
504 1 0.178041 0.104906 0.223945
1899 1 0.412528 0.136204 0.224293
1835 1 0.63007 0.1106 0.228911
1649 1 0.348234 0.146291 0.192717
686 1 0.555629 0.145859 0.234661
2001 1 0.800945 0.153292 0.21245
174 1 0.937036 0.144741 0.219684
616 1 0.0976909 0.208307 0.218896
1921 1 0.159814 0.228456 0.19066
1287 1 0.232629 0.212447 0.213615
1205 1 0.309446 0.197814 0.227628
1591 1 0.497593 0.199916 0.214674
984 1 0.592752 0.193559 0.207333
1523 1 0.678564 0.218702 0.206748
414 1 0.885585 0.203619 0.231338
1572 1 0.996679 0.205395 0.201579
732 1 0.275275 0.272791 0.208698
54 1 0.34661 0.261742 0.23374
1060 1 0.517347 0.275123 0.216537
1451 1 0.00485597 0.332331 0.197091
703 1 0.0727548 0.323248 0.207737
1130 1 0.328042 0.325692 0.203371
989 1 0.642352 0.299118 0.206935
1193 1 0.817625 0.300604 0.214621
647 1 0.504207 0.367411 0.190632
895 1 0.57805 0.335716 0.220874
1496 1 0.870079 0.360328 0.211419
1592 1 0.108733 0.392143 0.200429
1016 1 0.175717 0.38816 0.232341
1342 1 0.316534 0.39751 0.193212
1441 1 0.383241 0.392345 0.220888
282 1 0.600561 0.410919 0.193096
1727 1 0.938401 0.383707 0.199976
1043 1 0.212902 0.473537 0.208311
267 1 0.344029 0.463985 0.211087
846 1 0.493832 0.439465 0.215556
561 1 0.664366 0.445912 0.191023
1530 1 0.846467 0.430826 0.205839
994 1 0.922255 0.443332 0.232352
100 1 0.414294 0.476343 0.200061
1180 1 0.546363 0.493644 0.228544
914 1 0.274658 0.526457 0.206897
540 1 0.398199 0.563217 0.20272
1731 1 0.540099 0.559397 0.199048
428 1 0.600728 0.528347 0.195154
1291 1 0.863211 0.558701 0.215943
620 1 0.000917618 0.605903 0.211551
334 1 0.0764031 0.613629 0.195696
1627 1 0.159982 0.572597 0.200362
222 1 0.593275 0.610819 0.209119
529 1 0.759797 0.607066 0.203964
746 1 0.914342 0.607077 0.211597
1215 1 0.45648 0.620824 0.19327
1110 1 0.694514 0.643288 0.211345
1253 1 0.824678 0.624643 0.193039
451 1 0.0935342 0.678627 0.219921
1684 1 0.244949 0.676552 0.207561
1606 1 0.40665 0.6968 0.199127
1073 1 0.488504 0.711252 0.214571
489 1 0.761732 0.678151 0.232561
605 1 0.967269 0.676277 0.225932
1490 1 0.0050587 0.730353 0.199814
1877 1 0.115803 0.753147 0.206924
615 1 0.186567 0.734197 0.214738
1800 1 0.655054 0.744701 0.233147
51 1 0.716469 0.725884 0.194517
1779 1 0.778637 0.75746 0.209571
1945 1 0.173192 0.807128 0.215317
188 1 0.258423 0.788496 0.223459
1445 1 0.586833 0.777625 0.194533
1290 1 0.883492 0.786445 0.223552
1468 1 0.3218 0.820245 0.199766
1002 1 0.397697 0.85607 0.235166
1222 1 0.459219 0.836646 0.21081
665 1 0.634241 0.81927 0.231384
1184 1 0.763506 0.850715 0.214191
1099 1 0.982836 0.810947 0.206695
85 1 0.192026 0.889876 0.212473
1946 1 0.526359 0.875341 0.219451
1306 1 0.703159 0.885758 0.217971
1768 1 0.904438 0.863476 0.207344
695 1 0.130981 0.9286 0.217038
1401 1 0.345261 0.925755 0.202217
1476 1 0.789518 0.946579 0.219064
926 1 0.121606 0.998697 0.19457
680 1 0.187536 0.97655 0.218075
2012 1 0.460735 0.991851 0.226364
185 1 0.648379 0.987534 0.198711
531 1 0.717201 0.961261 0.208333
610 1 0.85611 0.967783 0.235769
465 1 0.930832 0.978686 0.229494
1943 1 0.140675 0.0135703 0.270913
1699 1 0.740692 0.00243484 0.276416
921 1 0.807167 0.028586 0.281817
888 1 0.89513 0.0277602 0.26674
1527 1 0.980558 0.000306598 0.278774
1003 1 0.0554782 0.050042 0.271086
621 1 0.296149 0.071326 0.270248
230 1 0.429485 0.0625882 0.27061
1266 1 0.514298 0.0578346 0.265464
442 1 0.585368 0.0566697 0.240716
116 1 0.656772 0.0512211 0.274511
1867 1 0.109988 0.123609 0.238917
1461 1 0.36986 0.10046 0.272864
696 1 0.484676 0.134057 0.238487
941 1 0.775654 0.0970641 0.263056
683 1 0.896469 0.11243 0.268511
179 1 0.259842 0.150956 0.253505
681 1 0.644901 0.180066 0.26317
356 1 0.826727 0.154694 0.278288
1762 1 0.0599626 0.235896 0.282789
1029 1 0.181789 0.207009 0.270091
1171 1 0.833439 0.234519 0.272533
933 1 0.00239567 0.268585 0.248003
1822 1 0.288339 0.27965 0.281862
1599 1 0.447728 0.257135 0.243121
1021 1 0.573903 0.251888 0.27025
435 1 0.648173 0.249383 0.271743
415 1 0.77276 0.246652 0.238486
1351 1 0.911157 0.2852 0.263333
906 1 0.141525 0.321945 0.252889
1795 1 0.214405 0.31381 0.271354
995 1 0.388099 0.322394 0.251547
1880 1 0.470195 0.331381 0.240473
897 1 0.701265 0.291321 0.251291
932 1 0.760921 0.324819 0.260779
1189 1 0.966978 0.325609 0.261601
1308 1 0.0419122 0.359959 0.255767
77 1 0.0243773 0.425695 0.243027
1973 1 0.269825 0.418982 0.248005
1039 1 0.52232 0.392626 0.275396
730 1 0.628259 0.38185 0.251275
978 1 0.722336 0.406618 0.258575
577 1 0.82395 0.390255 0.271566
896 1 0.904549 0.385023 0.274368
1734 1 0.122903 0.456262 0.245228
287 1 0.617955 0.456992 0.242792
946 1 0.69683 0.474548 0.273375
139 1 0.0346313 0.486919 0.283922
317 1 0.868714 0.481754 0.279105
793 1 0.105916 0.525504 0.241228
246 1 0.168953 0.558778 0.26914
1894 1 0.262578 0.546803 0.276105
1836 1 0.364611 0.531021 0.255701
826 1 0.478767 0.530166 0.246625
491 1 0.563324 0.553495 0.276039
966 1 0.658113 0.548244 0.249346
1708 1 0.783857 0.530908 0.265502
1733 1 0.99583 0.530034 0.239249
359 1 0.0541606 0.581605 0.2553
1702 1 0.121433 0.609851 0.252868
82 1 0.221845 0.611054 0.239633
2046 1 0.293518 0.608752 0.244867
1512 1 0.428209 0.591349 0.264422
720 1 0.499085 0.592981 0.266273
1059 1 0.758397 0.601906 0.276329
1873 1 0.0373757 0.647002 0.278311
462 1 0.36763 0.642415 0.249706
431 1 0.523927 0.657411 0.285378
1084 1 0.84362 0.662018 0.271067
144 1 0.154496 0.683704 0.271702
1855 1 0.309653 0.701547 0.247381
1230 1 0.578594 0.676352 0.239984
145 1 0.696253 0.672479 0.276797
1774 1 0.238356 0.723136 0.279471
1967 1 0.386011 0.716742 0.266881
949 1 0.581294 0.741557 0.283116
364 1 0.739159 0.731175 0.283859
969 1 0.832945 0.730192 0.25501
407 1 0.180579 0.7772 0.284365
1120 1 0.418097 0.795897 0.274938
1710 1 0.516506 0.772489 0.242993
352 1 0.771806 0.804061 0.275565
1243 1 0.976375 0.776131 0.272296
126 1 0.00752887 0.846091 0.282535
1712 1 0.0793571 0.810017 0.250744
916 1 0.585406 0.822337 0.285344
315 1 0.694579 0.815897 0.267004
26 1 0.851062 0.817477 0.282978
503 1 0.919906 0.839417 0.2793
1260 1 0.0327448 0.897736 0.240853
195 1 0.0954574 0.894068 0.274762
447 1 0.302155 0.865489 0.265968
515 1 0.587845 0.891124 0.266531
852 1 0.655938 0.899459 0.284481
1557 1 0.743595 0.90209 0.273501
1992 1 0.829761 0.886974 0.261903
1660 1 0.217894 0.928158 0.265558
1846 1 0.479773 0.927119 0.24975
1013 1 0.903787 0.908072 0.260638
1918 1 0.0761492 0.984336 0.250473
1421 1 0.291789 0.987417 0.256808
1172 1 0.394361 0.969417 0.253127
598 1 0.537717 0.969753 0.250325
865 1 0.665567 0.976571 0.271105
1474 1 0.259578 0.0283126 0.326855
1269 1 0.364699 0.0241459 0.288038
930 1 0.551307 0.0427003 0.320856
1916 1 0.136919 0.0887747 0.301614
1915 1 0.195852 0.05856 0.328984
945 1 0.503313 0.0930845 0.328454
1015 1 0.00166316 0.105731 0.297899
1095 1 0.0773647 0.128857 0.306821
228 1 0.612609 0.114207 0.303399
1211 1 0.698015 0.130207 0.328232
128 1 0.83693 0.102306 0.33146
42 1 0.107859 0.190369 0.293292
118 1 0.320568 0.173672 0.320557
870 1 0.443572 0.149973 0.308838
1728 1 0.564353 0.181519 0.297259
25 1 0.722917 0.185326 0.294612
1234 1 0.391038 0.216787 0.293084
1709 1 0.497186 0.224992 0.320902
1896 1 0.783976 0.192567 0.332883
689 1 0.974684 0.205413 0.288825
530 1 0.434511 0.273571 0.328352
1756 1 0.750988 0.258797 0.306332
772 1 0.989681 0.283476 0.324284
642 1 0.552087 0.32037 0.28795
1564 1 0.625079 0.323174 0.305409
624 1 0.692454 0.302833 0.331183
1212 1 0.925015 0.316722 0.32382
723 1 0.333634 0.373787 0.288588
1025 1 0.479585 0.352326 0.320066
786 1 0.679309 0.374886 0.310982
584 1 0.850876 0.342132 0.315595
338 1 0.986589 0.358608 0.322341
548 1 0.139102 0.405941 0.319668
1499 1 0.222915 0.395865 0.301761
1356 1 0.384221 0.423304 0.291053
952 1 0.462457 0.427225 0.29157
700 1 0.747601 0.398585 0.324393
227 1 0.0730993 0.431499 0.299155
1280 1 0.228937 0.465383 0.289466
347 1 0.560828 0.44333 0.302915
1143 1 0.633629 0.437121 0.311846
1417 1 0.790228 0.461658 0.294297
258 1 0.959685 0.441476 0.321068
996 1 0.136776 0.489392 0.317789
1812 1 0.32243 0.476965 0.308336
1331 1 0.417448 0.515505 0.311842
1168 1 0.515783 0.503391 0.305387
264 1 0.0223032 0.539408 0.33034
924 1 0.104603 0.55731 0.30893
1418 1 0.206268 0.524857 0.324242
919 1 0.347273 0.547554 0.326121
457 1 0.475688 0.563327 0.325389
1781 1 0.721728 0.536718 0.299649
135 1 0.854825 0.54657 0.310079
360 1 0.923597 0.537858 0.296918
1051 1 0.174697 0.615385 0.320597
526 1 0.594954 0.617702 0.290831
323 1 0.663556 0.610688 0.288916
1897 1 0.899597 0.614428 0.299077
672 1 0.983876 0.587175 0.289645
770 1 0.0989087 0.651124 0.314962
237 1 0.322267 0.634762 0.311834
305 1 0.448809 0.665954 0.300824
1480 1 0.977558 0.662731 0.317499
985 1 0.201793 0.681337 0.323962
1792 1 0.799226 0.677883 0.32529
1759 1 0.0467765 0.723468 0.286728
1950 1 0.468797 0.743826 0.286912
1216 1 0.677952 0.737635 0.320073
1440 1 0.893609 0.716262 0.301404
1353 1 0.0167456 0.773363 0.330897
1350 1 0.100513 0.76571 0.307848
236 1 0.289671 0.792447 0.288099
1905 1 0.54401 0.775479 0.324983
155 1 0.814189 0.765215 0.31607
84 1 0.929072 0.775284 0.329818
593 1 0.0912954 0.834704 0.331382
253 1 0.151781 0.853609 0.298441
49 1 0.226939 0.831391 0.323881
1327 1 0.354239 0.818187 0.312378
1538 1 0.425746 0.855363 0.308125
1405 1 0.641155 0.819438 0.328423
32 1 0.497513 0.869707 0.287766
792 1 0.19096 0.90903 0.330854
1540 1 0.276968 0.937793 0.328455
1435 1 0.550638 0.911456 0.333149
1478 1 0.79161 0.940334 0.307622
580 1 0.997117 0.930941 0.295969
823 1 0.0318099 0.982948 0.32395
1206 1 0.205711 0.984176 0.324382
53 1 0.351945 0.954954 0.308216
879 1 0.485047 0.99992 0.292812
2024 1 0.596978 0.957652 0.295116
716 1 0.853802 0.980518 0.322556
1176 1 0.928787 0.98485 0.327671
121 1 0.136083 0.00311124 0.340151
595 1 0.348504 0.0453076 0.357296
175 1 0.467085 0.0080503 0.37442
1359 1 0.629953 0.0236983 0.336041
1328 1 0.787194 0.000306387 0.357413
1444 1 0.978642 0.0438377 0.34007
1968 1 0.057966 0.0582103 0.348948
536 1 0.130205 0.0745188 0.375214
1827 1 0.291092 0.0776667 0.375476
1475 1 0.731203 0.0689168 0.339896
992 1 0.905617 0.0711435 0.346922
775 1 0.0134141 0.13242 0.375639
1108 1 0.245712 0.11349 0.333965
1349 1 0.371112 0.11236 0.352881
425 1 0.561399 0.131867 0.355653
327 1 0.0975639 0.162614 0.367696
803 1 0.243908 0.166294 0.380617
1155 1 0.492856 0.161597 0.354924
1865 1 0.638099 0.165257 0.350154
1316 1 0.890419 0.164726 0.341391
1788 1 0.00737443 0.222878 0.367572
1432 1 0.211042 0.22206 0.344526
374 1 0.652213 0.232934 0.348317
644 1 0.720583 0.201637 0.367083
1 1 0.075507 0.274603 0.371718
781 1 0.29993 0.243842 0.357437
1408 1 0.571406 0.245612 0.339693
63 1 0.781926 0.266903 0.371692
1706 1 0.850688 0.266254 0.355831
1090 1 0.915987 0.246817 0.357264
1845 1 0.149054 0.310416 0.340659
506 1 0.233383 0.286786 0.361907
80 1 0.367336 0.330036 0.337045
646 1 0.507268 0.308934 0.364914
293 1 0.632112 0.308992 0.377203
2027 1 0.277198 0.362183 0.339068
1404 1 0.619213 0.3755 0.35273
623 1 0.748341 0.340048 0.359671
1112 1 0.810377 0.365427 0.373956
569 1 0.0414805 0.395108 0.352788
255 1 0.410224 0.386876 0.347648
1430 1 0.510855 0.42156 0.349278
344 1 0.841523 0.424934 0.334977
1278 1 0.938359 0.390613 0.368237
567 1 0.182597 0.449214 0.359607
673 1 0.367305 0.462031 0.372877
790 1 0.714327 0.45811 0.342641
99 1 0.891698 0.464988 0.366006
275 1 0.076924 0.503594 0.358321
56 1 0.275132 0.480962 0.364166
260 1 0.566362 0.486252 0.375559
1456 1 0.633318 0.512512 0.345921
928 1 0.996627 0.481895 0.375552
868 1 0.146763 0.531676 0.366881
161 1 0.772468 0.528402 0.355349
1878 1 0.948101 0.535379 0.376109
1263 1 0.234777 0.598978 0.355618
1165 1 0.397257 0.604751 0.338045
11 1 0.544043 0.579943 0.340099
1372 1 0.609717 0.613909 0.370039
1226 1 0.715976 0.60014 0.340023
1299 1 0.818624 0.611216 0.348145
1068 1 0.0349119 0.62026 0.354777
1196 1 0.917219 0.619615 0.370968
1160 1 0.00891718 0.696768 0.368986
1673 1 0.147071 0.711545 0.352411
1868 1 0.266433 0.667864 0.371044
864 1 0.323627 0.704485 0.33879
119 1 0.439268 0.699663 0.359889
1079 1 0.500123 0.669739 0.371672
332 1 0.560223 0.700229 0.342043
1696 1 0.641234 0.677509 0.34288
192 1 0.734283 0.679846 0.346508
1657 1 0.86537 0.669751 0.365658
1854 1 0.92966 0.707512 0.363726
1844 1 0.0785072 0.730465 0.36939
1390 1 0.379375 0.752987 0.340003
1188 1 0.208162 0.766675 0.349744
674 1 0.287763 0.789252 0.375436
1955 1 0.616031 0.765283 0.372765
1507 1 0.727442 0.769572 0.370124
1203 1 0.468098 0.81157 0.34423
1105 1 0.532576 0.848926 0.364163
1983 1 0.734099 0.838246 0.343054
466 1 0.816494 0.835541 0.345469
1979 1 0.893522 0.832914 0.352617
1839 1 0.0493731 0.892475 0.33398
1787 1 0.293864 0.874245 0.371132
2020 1 0.449312 0.880811 0.369801
391 1 0.368733 0.92677 0.371334
661 1 0.431538 0.946646 0.34145
278 1 0.631835 0.905339 0.357251
1005 1 0.71354 0.919292 0.338125
1336 1 0.855355 0.909993 0.339149
1517 1 0.934907 0.912727 0.356968
358 1 0.531095 0.977164 0.342092
1485 1 0.191284 0.0208426 0.395915
1037 1 0.266973 0.019978 0.415443
430 1 0.53058 0.0174619 0.406786
1131 1 0.83727 0.0403053 0.405445
1077 1 0.901685 0.0163662 0.388641
1126 1 0.973594 0.0373515 0.414496
648 1 0.372978 0.0665666 0.424084
1641 1 0.439052 0.0882667 0.383866
1096 1 0.590965 0.071911 0.403775
1464 1 0.675544 0.0518049 0.387337
960 1 0.756847 0.0491956 0.407647
1984 1 0.0891431 0.107995 0.425605
1312 1 0.196422 0.100185 0.38657
1368 1 0.514922 0.105322 0.42629
628 1 0.65317 0.127576 0.412213
221 1 0.73008 0.136775 0.392117
1999 1 0.0378047 0.179061 0.423904
1895 1 0.164665 0.169198 0.390478
1785 1 0.455406 0.14817 0.418056
1589 1 0.808059 0.154367 0.389841
1931 1 0.944092 0.170458 0.391204
1329 1 0.213123 0.222797 0.415959
1829 1 0.318194 0.20295 0.426407
1199 1 0.452049 0.232931 0.387548
767 1 0.54456 0.196802 0.398473
990 1 0.846374 0.212508 0.414401
220 1 0.143127 0.24977 0.385272
512 1 0.272483 0.266341 0.421403
1386 1 0.382617 0.259327 0.396675
899 1 0.550244 0.272759 0.416777
1256 1 0.613579 0.238547 0.406193
1047 1 0.0150281 0.318055 0.383413
22 1 0.448101 0.31092 0.412847
1989 1 0.706678 0.330239 0.41773
1354 1 0.121223 0.364526 0.408957
89 1 0.186933 0.356821 0.383382
207 1 0.27143 0.335669 0.406745
1470 1 0.555965 0.350512 0.399247
1981 1 0.952891 0.336255 0.41464
259 1 0.249273 0.410715 0.384316
563 1 0.327271 0.404009 0.393607
406 1 0.493359 0.382602 0.406322
1103 1 0.587608 0.41927 0.393856
806 1 0.707847 0.39843 0.388412
178 1 0.999677 0.395388 0.414377
1460 1 0.0502847 0.443941 0.416784
34 1 0.124989 0.461836 0.403612
1932 1 0.447041 0.438733 0.38279
438 1 0.667279 0.464443 0.417867
1859 1 0.770096 0.449355 0.382186
1100 1 0.932054 0.468944 0.4229
401 1 0.487382 0.500095 0.406518
1355 1 0.828781 0.486952 0.391553
346 1 0.00981863 0.548309 0.42184
1904 1 0.307878 0.539228 0.405854
81 1 0.427626 0.56075 0.386304
668 1 0.62675 0.564047 0.421073
1939 1 0.702314 0.533327 0.389722
752 1 0.833342 0.557107 0.395493
1035 1 0.0866427 0.584657 0.40591
1862 1 0.155387 0.595159 0.398517
309 1 0.497387 0.588555 0.407951
900 1 0.760166 0.597896 0.396204
219 1 0.0492886 0.641388 0.421156
1807 1 0.851437 0.620714 0.416628
670 1 0.968019 0.62656 0.425388
1026 1 0.368314 0.670291 0.385856
1886 1 0.60582 0.67256 0.41075
289 1 0.159846 0.734185 0.427723
2035 1 0.345596 0.761019 0.417522
1753 1 0.506149 0.757888 0.391076
1700 1 0.66929 0.721067 0.395483
684 1 0.800671 0.714926 0.398657
1986 1 0.867436 0.738683 0.428154
479 1 0.971147 0.751048 0.407687
1534 1 0.0357179 0.783867 0.401044
611 1 0.677675 0.796254 0.411128
769 1 0.837608 0.80818 0.418976
1377 1 0.124795 0.829541 0.395021
1645 1 0.208317 0.844305 0.416583
417 1 0.395227 0.850069 0.413307
1513 1 0.766834 0.836568 0.406887
1960 1 0.954642 0.817075 0.381007
1346 1 0.066932 0.885376 0.410693
1241 1 0.588199 0.86324 0.402983
1225 1 0.860504 0.87735 0.399438
1367 1 0.982469 0.878264 0.39666
1220 1 0.15584 0.917817 0.393071
1436 1 0.226256 0.919842 0.414255
1579 1 0.292257 0.946434 0.420953
137 1 0.550129 0.926209 0.40737
1958 1 0.690731 0.915531 0.408589
1217 1 0.768194 0.942038 0.402264
1525 1 0.0135409 0.964017 0.396244
469 1 0.102089 0.969999 0.401866
539 1 0.350741 0.999762 0.409938
1017 1 0.421568 0.966875 0.412273
967 1 0.592602 0.985844 0.385152
30 1 0.853749 0.972315 0.396925
1311 1 0.103834 0.0388582 0.430939
1659 1 0.197679 0.0334926 0.470225
1379 1 0.604531 0.0140847 0.473031
1670 1 0.254484 0.0927002 0.463214