ITEM: TIMESTEP
100000
ITEM: NUMBER OF ATOMS
2048
ITEM: BOX BOUNDS pp pp pp
0.0000000000000000e+00 1.1635780856594225e+01
0.0000000000000000e+00 1.1635780856594225e+01
0.0000000000000000e+00 1.1635780856594225e+01
ITEM: ATOMS id type xs ys zs
5 1 0.124564 1.0023 0.000372756
7 1 0.190907 0.998546 0.0604192
25 1 0.747456 0.00554147 0.996577
26 1 0.809435 0.0636047 0.995342
29 1 0.86512 0.997769 0.00354695
1 1 0.99796 0.999566 0.998867
6 1 0.183853 0.0546017 0.996823
12 1 0.245663 0.0682179 0.0474669
14 1 0.435472 0.0595814 0.993932
20 1 0.49679 0.0593669 0.0590349
18 1 0.558782 0.0611918 0.00962997
22 1 0.690532 0.0593292 0.995945
30 1 0.933475 0.0593211 0.991941
33 1 0.994694 0.116397 0.996118
37 1 0.115496 0.119618 0.994779
41 1 0.246268 0.128075 0.992467
45 1 0.377077 0.121352 0.993941
47 1 0.439803 0.127232 0.0584678
49 1 0.50435 0.127781 0.000736452
51 1 0.557856 0.128847 0.0633991
53 1 0.623885 0.115199 0.995646
61 1 0.875414 0.120686 0.99341
34 1 0.0658463 0.186724 0.00502424
38 1 0.19486 0.193737 0.996627
42 1 0.316629 0.191535 0.00587666
46 1 0.437286 0.186906 0.999258
50 1 0.56631 0.182414 0.995099
54 1 0.682234 0.185389 0.00680424
58 1 0.807709 0.17715 0.989079
62 1 0.935789 0.182427 -0.00100104
65 1 0.992149 0.251922 0.999401
69 1 0.125068 0.249353 0.000259985
81 1 0.501065 0.249796 0.00494947
89 1 0.746665 0.244022 0.00860313
91 1 0.816602 0.244902 0.0649757
74 1 0.317207 0.314513 0.999305
78 1 0.438687 0.312534 0.00103352
86 1 0.687901 0.305053 0.00459359
94 1 0.93816 0.309946 0.00229693
101 1 0.126231 0.380741 0.99803
103 1 0.188654 0.370829 0.064285
109 1 0.37757 0.375021 0.00636822
121 1 0.752603 0.371591 0.00186948
125 1 0.874449 0.376708 0.00144076
97 1 -9.36533e-05 0.379835 0.00798001
98 1 0.0640494 0.436188 0.999419
108 1 0.253753 0.436256 0.0614854
112 1 0.375028 0.437921 0.0639506
116 1 0.506465 0.43872 0.0617949
114 1 0.564587 0.441141 0.997399
120 1 0.631896 0.434011 0.0721859
118 1 0.683078 0.439556 0.992495
100 1 0.000477144 0.440441 0.0682382
131 1 0.0655641 0.496275 0.0598416
133 1 0.132972 0.505594 0.00354473
139 1 0.312 0.496937 0.0735203
141 1 0.37642 0.499617 0.994812
143 1 0.446407 0.499189 0.0583999
145 1 0.502697 0.498252 0.995696
149 1 0.628283 0.502656 0.991663
130 1 0.0677227 0.559725 0.00505574
134 1 0.184687 0.565228 0.0054909
144 1 0.371202 0.56434 0.0691766
148 1 0.506395 0.563463 0.0641692
146 1 0.564544 0.56191 0.998736
150 1 0.680703 0.565398 0.999636
160 1 0.86674 0.555818 0.0604277
158 1 0.938561 0.557118 0.999209
163 1 0.0589402 0.628011 0.0705101
165 1 0.11844 0.623363 0.0154797
171 1 0.314788 0.624741 0.0718867
175 1 0.436949 0.626554 0.0636931
183 1 0.685588 0.619471 0.0614669
166 1 0.181094 0.68735 0.00408621
172 1 0.244171 0.685502 0.0684162
170 1 0.313184 0.688651 0.00786099
174 1 0.436128 0.687268 0.00104269
178 1 0.553371 0.68452 0.00275444
188 1 0.741961 0.688919 0.0567632
190 1 0.938186 0.683942 0.00529499
164 1 0.990604 0.682065 0.0670285
197 1 0.12452 0.750934 0.00727911
201 1 0.249429 0.741633 0.00955609
205 1 0.375317 0.748374 0.00979563
209 1 0.497729 0.751755 0.990522
198 1 0.185326 0.822124 0.995012
202 1 0.309351 0.807271 0.00641748
206 1 0.433131 0.806504 0.00344545
218 1 0.816343 0.818227 0.00233797
196 1 0.000659954 0.812811 0.0594183
227 1 0.0579539 0.875517 0.061826
229 1 0.118407 0.875191 0.000872999
233 1 0.253377 0.873223 0.997173
237 1 0.373975 0.871128 0.000118511
241 1 0.497009 0.870533 1.00087
249 1 0.747669 0.872449 0.0111236
253 1 0.876831 0.87822 0.998168
242 1 0.562132 0.936015 0.994012
246 1 0.68591 0.934792 0.998
254 1 0.931293 0.941875 0.0145315
13 1 0.36559 0.000803808 0.994137
17 1 0.493407 -0.000289699 0.00559578
21 1 0.620817 0.999556 0.997586
250 1 0.813416 0.932574 0.997366
3 1 0.0664427 0.0038908 0.0601126
11 1 0.306022 0.0034077 0.0589886
19 1 0.558776 0.993073 0.0587952
24 1 0.624933 0.0633311 0.0584978
23 1 0.679666 0.00214225 0.0565456
27 1 0.806098 0.00719018 0.056943
31 1 0.944974 0.0168595 0.058936
35 1 0.0686394 0.117056 0.0632852
8 1 0.132947 0.0583123 0.0634833
16 1 0.372336 0.0704408 0.0607291
28 1 0.745449 0.0644825 0.0606668
32 1 0.869926 0.060558 0.0544878
4 1 0.0106741 0.0631744 0.0615542
39 1 0.185002 0.122787 0.0512614
43 1 0.307837 0.126375 0.0562349
55 1 0.685502 0.119845 0.0587743
59 1 0.814404 0.124029 0.0558106
63 1 0.942064 0.124331 0.0705387
36 1 0.997184 0.190367 0.0624338
40 1 0.130801 0.183719 0.0532992
44 1 0.25057 0.187028 0.0607737
48 1 0.373709 0.186736 0.0646497
52 1 0.501395 0.190199 0.0616483
56 1 0.618292 0.183208 0.0588096
60 1 0.747017 0.175242 0.0580488
64 1 0.876151 0.182745 0.052933
67 1 0.0519815 0.251257 0.0608262
71 1 0.183083 0.253791 0.0658977
75 1 0.309913 0.250724 0.0652063
79 1 0.435863 0.250587 0.0672851
83 1 0.563409 0.246538 0.0625344
87 1 0.684014 0.253489 0.0652742
95 1 0.932245 0.24415 0.0589624
72 1 0.12248 0.316978 0.0654592
76 1 0.246659 0.312328 0.0703963
80 1 0.368134 0.314272 0.0674737
84 1 0.498448 0.315268 0.0583236
88 1 0.623249 0.317715 0.0639209
92 1 0.753252 0.306417 0.0575659
96 1 0.877695 0.310934 0.0598634
68 1 0.998421 0.310302 0.0692638
99 1 0.0652037 0.376955 0.0674421
107 1 0.309028 0.371967 0.0662834
111 1 0.440026 0.380393 0.0676049
115 1 0.558369 0.377158 0.0636447
119 1 0.69328 0.373351 0.0571008
123 1 0.81611 0.377692 0.0705402
127 1 0.942233 0.368463 0.0682765
104 1 0.126549 0.441803 0.0620873
370 1 0.566823 0.438306 0.121454
124 1 0.749075 0.438865 0.0510505
128 1 0.875724 0.434459 0.0635022
135 1 0.185082 0.500315 0.0673595
147 1 0.566473 0.499294 0.0563279
151 1 0.691474 0.496526 0.0598108
155 1 0.810681 0.497915 0.0600205
159 1 0.943278 0.494063 0.0629883
136 1 0.120521 0.559177 0.0732593
140 1 0.253232 0.554789 0.0695826
152 1 0.623506 0.559958 0.0651575
156 1 0.745117 0.557854 0.0591326
132 1 0.00326555 0.562848 0.0625673
167 1 0.180949 0.62919 0.0700634
179 1 0.567022 0.620113 0.0592624
187 1 0.804924 0.618591 0.0591728
191 1 0.933482 0.618686 0.0632093
168 1 0.124417 0.689771 0.0658136
176 1 0.378205 0.683953 0.0621236
180 1 0.494589 0.683961 0.0663259
184 1 0.62681 0.684836 0.0604165
192 1 0.86966 0.687737 0.0624877
195 1 0.0646677 0.752199 0.0640936
199 1 0.186217 0.749712 0.0654646
203 1 0.309735 0.745267 0.0695828
207 1 0.439963 0.749814 0.0631595
211 1 0.568894 0.74721 0.0617797
215 1 0.684182 0.754911 0.0624298
219 1 0.813186 0.753029 0.0606389
223 1 0.937443 0.746635 0.0588538
200 1 0.132724 0.820536 0.0671855
204 1 0.244574 0.809454 0.0567206
208 1 0.367736 0.808984 0.0656134
212 1 0.502404 0.805712 0.060329
216 1 0.620712 0.814395 0.063442
220 1 0.747219 0.805133 0.0646351
224 1 0.879067 0.819048 0.066118
231 1 0.190063 0.882202 0.0759328
235 1 0.310492 0.868962 0.0721051
239 1 0.430233 0.872355 0.0666291
243 1 0.568061 0.875878 0.0601289
247 1 0.681497 0.876562 0.058769
251 1 0.813025 0.872876 0.0650557
255 1 0.942423 0.872057 0.0589016
481 1 0.00437397 0.884174 0.124279
228 1 0.0089194 0.939512 0.0653879
482 1 0.0659683 0.943783 0.127048
236 1 0.25208 0.934968 0.0665293
240 1 0.377232 0.935177 0.0593509
244 1 0.496614 0.927692 0.0635765
252 1 0.757478 0.943908 0.054475
232 1 0.123851 0.946334 0.0607242
15 1 0.424511 0.0024253 0.0562476
248 1 0.625597 0.936276 0.0582627
256 1 0.866539 0.938407 0.0628599
261 1 0.131607 -0.000619281 0.128746
270 1 0.432913 0.063106 0.124537
273 1 0.488884 0.994452 0.113052
277 1 0.614408 -0.00135003 0.116004
281 1 0.736864 -0.000326898 0.115193
285 1 0.86881 0.00255263 0.11782
257 1 0.997008 0.00758562 0.123559
258 1 0.0644311 0.0595273 0.123778
262 1 0.195123 0.0555741 0.118776
266 1 0.306843 0.0659147 0.114237
274 1 0.556931 0.0549841 0.128989
278 1 0.67845 0.0629585 0.12192
282 1 0.811629 0.0694357 0.122052
286 1 0.930229 0.0605906 0.130356
289 1 0.00621769 0.118969 0.130312
293 1 0.13166 0.120954 0.119048
297 1 0.248088 0.123764 0.117992
301 1 0.376498 0.124722 0.122005
305 1 0.49821 0.119652 0.126449
309 1 0.614948 0.118683 0.126029
313 1 0.739398 0.126158 0.133771
317 1 0.873194 0.134246 0.120461
290 1 0.0665101 0.18761 0.1123
294 1 0.188312 0.184222 0.122106
298 1 0.314504 0.189848 0.1286
302 1 0.439998 0.182994 0.121716
306 1 0.559419 0.19008 0.121267
310 1 0.685055 0.187221 0.11522
314 1 0.806086 0.184805 0.121826
318 1 0.93585 0.188904 0.126407
321 1 0.999332 0.245525 0.123671
325 1 0.125466 0.25203 0.120653
329 1 0.249704 0.244762 0.124944
333 1 0.372372 0.251104 0.12153
337 1 0.500551 0.255321 0.119149
341 1 0.622925 0.246851 0.117467
345 1 0.748735 0.244194 0.113061
349 1 0.875273 0.247427 0.125902
322 1 0.0641163 0.309856 0.118493
326 1 0.187554 0.313801 0.126964
330 1 0.31192 0.309849 0.128955
334 1 0.439159 0.31496 0.120804
338 1 0.558011 0.315421 0.124372
342 1 0.688994 0.309495 0.123646
346 1 0.81851 0.310064 0.123982
350 1 0.935953 0.307065 0.119759
353 1 0.997197 0.368386 0.131501
357 1 0.12157 0.375429 0.130581
361 1 0.24774 0.375523 0.126694
365 1 0.373533 0.374605 0.121561
369 1 0.49595 0.373251 0.136797
373 1 0.635539 0.378878 0.12897
377 1 0.754075 0.381316 0.122633
381 1 0.881426 0.377235 0.129232
354 1 0.0572083 0.43697 0.129295
358 1 0.184872 0.435207 0.130359
362 1 0.311362 0.437126 0.129052
366 1 0.444878 0.440863 0.121069
374 1 0.693446 0.443218 0.131032
378 1 0.818024 0.431131 0.131583
382 1 0.93535 0.441104 0.126328
389 1 0.124635 0.500561 0.132052
393 1 0.245512 0.496092 0.130535
397 1 0.38007 0.497985 0.119277
401 1 0.506328 0.49817 0.120122
405 1 0.62764 0.498594 0.121688
409 1 0.75668 0.499261 0.131532
413 1 0.874064 0.50272 0.13204
385 1 0.00221534 0.502175 0.134516
386 1 0.060082 0.56356 0.124365
390 1 0.186203 0.562695 0.127052
394 1 0.312768 0.56078 0.131374
398 1 0.438867 0.558765 0.120361
402 1 0.56329 0.55823 0.122337
406 1 0.683353 0.562161 0.119675
410 1 0.805529 0.564952 0.126454
414 1 0.941899 0.555254 0.118715
421 1 0.121796 0.625296 0.127033
425 1 0.247014 0.621434 0.126666
429 1 0.371159 0.61781 0.129245
433 1 0.500785 0.627108 0.127304
437 1 0.628711 0.62475 0.123837
441 1 0.748189 0.626248 0.115183
445 1 0.865362 0.623808 0.123877
417 1 0.995469 0.626185 0.128559
418 1 0.063135 0.692025 0.124595
422 1 0.188068 0.696574 0.130954
426 1 0.309136 0.687874 0.131058
430 1 0.437191 0.684943 0.126058
434 1 0.561557 0.687399 0.120456
438 1 0.688546 0.688594 0.12707
442 1 0.80646 0.682815 0.117343
446 1 0.932225 0.689473 0.117114
449 1 0.000419214 0.746919 0.121712
453 1 0.120382 0.754039 0.125748
457 1 0.247257 0.749426 0.128403
461 1 0.373088 0.75049 0.123624
465 1 0.505714 0.748542 0.125702
469 1 0.627573 0.744489 0.131309
473 1 0.758526 0.74988 0.122848
477 1 0.872244 0.755461 0.127607
450 1 0.0642669 0.816015 0.117017
454 1 0.191849 0.81317 0.123496
458 1 0.311029 0.811862 0.128195
462 1 0.439555 0.813284 0.128705
466 1 0.566864 0.809369 0.124306
470 1 0.684272 0.815767 0.130396
474 1 0.809886 0.816068 0.127941
478 1 0.945946 0.808381 0.12017
452 1 0.000244126 0.817896 0.184174
485 1 0.11938 0.877468 0.124366
489 1 0.249679 0.877755 0.13228
493 1 0.378869 0.868767 0.132556
497 1 0.510609 0.868966 0.120083
501 1 0.628645 0.874958 0.127829
505 1 0.745448 0.870734 0.110451
509 1 0.883065 0.880892 0.125082
490 1 0.322877 0.936009 0.121734
494 1 0.429644 0.936095 0.122554
498 1 0.564704 0.934893 0.124611
502 1 0.677782 0.939098 0.12863
506 1 0.80427 0.942368 0.119758
510 1 0.940212 0.941243 0.109284
486 1 0.194824 0.945163 0.126248
265 1 0.256932 0.999312 0.125077
269 1 0.369755 0.00647827 0.120647
259 1 0.0716009 0.00207889 0.187193
263 1 0.183843 0.999063 0.191257
267 1 0.313686 1.00253 0.183995
271 1 0.436131 0.993606 0.184125
279 1 0.684987 0.00367 0.185628
287 1 0.940711 0.997836 0.187107
260 1 0.00655767 0.0607919 0.191479
264 1 0.13099 0.0679392 0.182432
268 1 0.243839 0.0679883 0.188057
272 1 0.373932 0.0671638 0.188875
276 1 0.488933 0.0610776 0.186545
280 1 0.614209 0.0551719 0.183734
284 1 0.755846 0.0643361 0.185463
288 1 0.872457 0.0630842 0.194586
291 1 0.0633653 0.122219 0.185182
295 1 0.187123 0.130367 0.188329
299 1 0.305178 0.123592 0.184743
303 1 0.437374 0.128575 0.186381
307 1 0.56274 0.125178 0.188486
311 1 0.6763 0.125267 0.189963
315 1 0.816272 0.129203 0.184077
319 1 0.946674 0.117125 0.188785
292 1 0.00822656 0.18445 0.184771
296 1 0.124539 0.191003 0.181467
300 1 0.249229 0.184329 0.178155
304 1 0.368057 0.200559 0.189781
308 1 0.504419 0.182137 0.188151
312 1 0.620812 0.190044 0.184097
316 1 0.746634 0.188619 0.188181
320 1 0.870874 0.19159 0.188004
323 1 0.0640915 0.24913 0.175158
327 1 0.192669 0.255359 0.186776
331 1 0.304942 0.251952 0.186558
335 1 0.435006 0.246349 0.185506
339 1 0.559542 0.250663 0.183969
343 1 0.691419 0.248072 0.178979
347 1 0.807171 0.246874 0.188598
351 1 0.939791 0.253866 0.183235
328 1 0.125828 0.311751 0.184354
332 1 0.251098 0.317087 0.186414
336 1 0.375471 0.307988 0.184924
340 1 0.493555 0.307784 0.187733
344 1 0.634662 0.314925 0.186744
348 1 0.751014 0.307452 0.188401
352 1 0.878472 0.306107 0.186582
324 1 0.00533174 0.307532 0.185823
355 1 0.0615566 0.369057 0.184069
359 1 0.189651 0.373134 0.185797
363 1 0.307825 0.373341 0.183314
367 1 0.430886 0.374829 0.18458
371 1 0.565993 0.374661 0.182092
375 1 0.696998 0.381891 0.182273
379 1 0.813703 0.370838 0.187126
383 1 0.94096 0.375623 0.189079
360 1 0.124757 0.440828 0.192727
364 1 0.251144 0.434545 0.194277
368 1 0.379236 0.44247 0.178731
372 1 0.50204 0.439105 0.191453
376 1 0.632295 0.448713 0.191326
380 1 0.752625 0.438592 0.192497
384 1 0.879444 0.432416 0.191255
356 1 0.00234307 0.445809 0.190726
387 1 0.0645684 0.502916 0.190009
391 1 0.187254 0.50354 0.18949
395 1 0.318199 0.493039 0.183063
399 1 0.443749 0.500726 0.181021
403 1 0.564608 0.493392 0.183828
407 1 0.687627 0.513528 0.185111
411 1 0.817565 0.501179 0.190257
415 1 0.939304 0.499332 0.189248
392 1 0.119979 0.562198 0.189367
396 1 0.247007 0.563842 0.187947
400 1 0.375622 0.553447 0.187427
404 1 0.496098 0.560893 0.179474
408 1 0.622497 0.573884 0.188301
412 1 0.756323 0.567859 0.193933
416 1 0.881418 0.565986 0.186634
388 1 0.99701 0.566551 0.184905
419 1 0.0617003 0.625616 0.190657
423 1 0.181754 0.626224 0.184711
427 1 0.306341 0.624705 0.18988
431 1 0.441023 0.618513 0.17959
435 1 0.555647 0.629084 0.194564
439 1 0.690351 0.620418 0.189302
443 1 0.807738 0.627283 0.188334
447 1 0.93184 0.630634 0.178904
424 1 0.120281 0.693472 0.193322
428 1 0.242421 0.683866 0.195695
432 1 0.376547 0.677625 0.182458
436 1 0.50545 0.694466 0.186806
440 1 0.625606 0.679619 0.194088
444 1 0.750912 0.69341 0.18447
448 1 0.871159 0.685026 0.185746
420 1 0.00288906 0.689283 0.181922
451 1 0.0572879 0.754936 0.187408
455 1 0.181318 0.757225 0.186041
459 1 0.310047 0.748777 0.191599
463 1 0.439816 0.752208 0.188448
467 1 0.573397 0.744426 0.193713
471 1 0.685577 0.747644 0.186905
475 1 0.818031 0.750764 0.19291
479 1 0.943751 0.75381 0.184872
456 1 0.125032 0.822851 0.187
460 1 0.253614 0.815085 0.191932
464 1 0.370888 0.803819 0.189579
468 1 0.501873 0.809347 0.183158
472 1 0.625333 0.812125 0.186558
476 1 0.754013 0.805382 0.192111
480 1 0.877359 0.816447 0.184453
483 1 0.0622677 0.882155 0.18706
487 1 0.191754 0.879468 0.187422
491 1 0.319245 0.869189 0.187505
495 1 0.438783 0.876562 0.191091
499 1 0.564044 0.874185 0.184586
503 1 0.701115 0.871056 0.189338
507 1 0.816561 0.880585 0.183008
511 1 0.941821 0.889639 0.184511
488 1 0.13065 0.934551 0.193963
492 1 0.259904 0.938152 0.187763
496 1 0.367403 0.938613 0.190173
500 1 0.49418 0.934609 0.181272
504 1 0.622136 0.936703 0.189719
508 1 0.748946 0.935843 0.182884
512 1 0.878174 0.943069 0.190043
484 1 0.00719443 0.945565 0.18197
275 1 0.554366 0.993646 0.186585
283 1 0.80926 0.995922 0.1837
521 1 0.251789 1.0001 0.259038
525 1 0.373481 0.0012109 0.248176
526 1 0.434225 0.0673514 0.253624
529 1 0.495099 0.988016 0.248764
533 1 0.624514 0.998077 0.249422
513 1 0.00657276 0.00915935 0.256929
514 1 0.0734502 0.0654039 0.249568
518 1 0.178098 0.0684583 0.250607
522 1 0.309427 0.0652248 0.241727
530 1 0.569156 0.0709414 0.250882
534 1 0.673518 0.064268 0.245437
538 1 0.810851 0.0661562 0.246956
542 1 0.937053 0.0595579 0.252417
549 1 0.13083 0.135257 0.248584
553 1 0.246511 0.120635 0.252269
557 1 0.378383 0.1298 0.242291
561 1 0.500356 0.121544 0.245949
565 1 0.623533 0.133962 0.250194
569 1 0.745121 0.121558 0.254636
573 1 0.884523 0.128747 0.248703
545 1 0.00633632 0.124467 0.250407
546 1 0.0653634 0.186732 0.24602
550 1 0.194 0.196886 0.240528
554 1 0.302381 0.182339 0.244121
558 1 0.435262 0.192106 0.24872
562 1 0.566227 0.188044 0.248425
566 1 0.68899 0.18384 0.252222
570 1 0.808099 0.187533 0.246003
574 1 0.944957 0.19103 0.235348
581 1 0.120833 0.251553 0.244575
585 1 0.249169 0.253633 0.251234
589 1 0.367805 0.254803 0.25265
593 1 0.503066 0.241875 0.249124
597 1 0.621355 0.252109 0.244362
601 1 0.750064 0.248768 0.248746
605 1 0.888873 0.247388 0.250293
577 1 0.0043561 0.247231 0.251689
578 1 0.0697853 0.311558 0.248168
582 1 0.18501 0.313641 0.244253
586 1 0.30856 0.312698 0.252795
590 1 0.426016 0.308153 0.253053
594 1 0.560316 0.317253 0.242066
598 1 0.693544 0.314702 0.251633
602 1 0.820943 0.307668 0.246065
606 1 0.945252 0.310802 0.244579
613 1 0.130024 0.37395 0.242615
617 1 0.245487 0.372153 0.251802
621 1 0.370129 0.379872 0.238715
625 1 0.493709 0.371353 0.242446
629 1 0.637942 0.375733 0.243857
633 1 0.750722 0.37216 0.244399
637 1 0.873552 0.371291 0.24837
609 1 0.00346655 0.375402 0.247673
610 1 0.0640236 0.434727 0.247372
614 1 0.187369 0.433513 0.247084
618 1 0.309233 0.433123 0.254313
622 1 0.431583 0.429855 0.244212
626 1 0.566209 0.430198 0.245557
630 1 0.690893 0.443515 0.252227
634 1 0.821422 0.437036 0.251266
638 1 0.940982 0.434935 0.247606
641 1 0.000762692 0.499057 0.253896
645 1 0.120391 0.496747 0.249478
649 1 0.24577 0.49854 0.247939
653 1 0.376058 0.505639 0.252714
657 1 0.497856 0.504327 0.245172
661 1 0.629114 0.507497 0.251938
665 1 0.752306 0.506487 0.247152
669 1 0.882297 0.498421 0.248734
642 1 0.0587878 0.555325 0.255581
646 1 0.180583 0.565317 0.24609
650 1 0.307381 0.562878 0.24517
654 1 0.443103 0.562546 0.255601
658 1 0.560075 0.56345 0.252725
662 1 0.682422 0.567182 0.25643
666 1 0.81469 0.56797 0.26092
670 1 0.940137 0.563164 0.251861
677 1 0.119313 0.622993 0.253818
681 1 0.242935 0.621699 0.250229
685 1 0.375328 0.617596 0.239064
689 1 0.499284 0.621771 0.254667
693 1 0.625596 0.623354 0.260712
697 1 0.748883 0.625824 0.256981
701 1 0.879101 0.618935 0.255101
673 1 0.994584 0.629437 0.244208
674 1 0.0556752 0.697398 0.249909
678 1 0.18173 0.695111 0.255483
682 1 0.30668 0.690341 0.254297
686 1 0.442488 0.681519 0.246482
690 1 0.557151 0.688607 0.252891
694 1 0.687314 0.683773 0.248731
698 1 0.819191 0.685808 0.25523
702 1 0.933991 0.691934 0.242495
709 1 0.124741 0.759194 0.248049
713 1 0.249996 0.753088 0.249898
717 1 0.374442 0.741006 0.24165
721 1 0.502731 0.748366 0.250849
725 1 0.626921 0.736704 0.256206
729 1 0.748631 0.745538 0.248134
733 1 0.881272 0.753311 0.251652
705 1 0.000245403 0.753582 0.253423
706 1 0.0623776 0.817447 0.24894
710 1 0.187077 0.817285 0.241267
714 1 0.312259 0.815773 0.247238
718 1 0.442852 0.812359 0.244916
722 1 0.56655 0.805171 0.250218
726 1 0.69013 0.798976 0.250994
730 1 0.808909 0.810405 0.25787
734 1 0.942093 0.823272 0.245442
741 1 0.121382 0.871809 0.251947
745 1 0.252283 0.875052 0.246728
749 1 0.367453 0.881307 0.25851
753 1 0.508419 0.868278 0.249502
757 1 0.631311 0.870356 0.250197
761 1 0.740601 0.880912 0.261195
765 1 0.885166 0.881483 0.24058
737 1 0.00197296 0.88424 0.24335
738 1 0.0621216 0.945358 0.249834
742 1 0.190109 0.937261 0.253315
746 1 0.31462 0.944105 0.249169
754 1 0.565815 0.932494 0.253553
766 1 0.946275 0.947762 0.253114
517 1 0.128496 0.998707 0.255988
750 1 0.426712 0.936768 0.249388
758 1 0.68604 0.935588 0.239447
537 1 0.74175 0.995123 0.251885
762 1 0.817514 0.933897 0.248916
541 1 0.878955 0.995319 0.251018
515 1 0.0625811 0.0100404 0.314446
519 1 0.19344 0.997774 0.312613
523 1 0.309222 0.00488486 0.318271
527 1 0.435835 5.31913e-05 0.304871
531 1 0.553135 0.996735 0.307597
536 1 0.619414 0.0632429 0.314499
539 1 0.811816 0.00275459 0.302951
543 1 0.938508 0.995378 0.327048
520 1 0.124898 0.0637173 0.31715
524 1 0.247471 0.0587552 0.316803
528 1 0.371834 0.0626043 0.311396
532 1 0.502843 0.0679711 0.313338
540 1 0.752424 0.0606445 0.306434
544 1 0.876169 0.0569515 0.311521
516 1 0.995895 0.0666118 0.312177
547 1 0.0649088 0.121476 0.313222
551 1 0.18316 0.120356 0.314176
555 1 0.318754 0.122641 0.302345
559 1 0.435365 0.12392 0.314822
563 1 0.558696 0.125758 0.322
567 1 0.681572 0.123727 0.31103
571 1 0.819442 0.120441 0.304629
575 1 0.939252 0.133229 0.306057
548 1 0.00959192 0.190652 0.311496
552 1 0.123291 0.192418 0.319142
556 1 0.247835 0.193454 0.308793
560 1 0.369352 0.188073 0.303861
564 1 0.49956 0.184023 0.31399
568 1 0.62732 0.192729 0.312518
572 1 0.748615 0.181529 0.311541
576 1 0.880263 0.194205 0.311118
579 1 0.0711377 0.259909 0.315248
583 1 0.180386 0.259118 0.316182
587 1 0.312676 0.247289 0.32026
591 1 0.438118 0.249863 0.314936
595 1 0.565192 0.249745 0.313362
599 1 0.691624 0.250239 0.308087
603 1 0.808165 0.246565 0.309588
607 1 0.9439 0.247138 0.310044
584 1 0.123481 0.32209 0.312355
588 1 0.243543 0.314477 0.315711
592 1 0.3698 0.317728 0.311865
596 1 0.507473 0.302888 0.308819
600 1 0.619349 0.314132 0.305668
604 1 0.762748 0.3142 0.310486
608 1 0.877476 0.310249 0.31195
580 1 0.998864 0.307539 0.311039
611 1 0.0568491 0.373018 0.315663
615 1 0.189042 0.379042 0.314915
619 1 0.305943 0.37935 0.318847
623 1 0.430082 0.369627 0.316328
627 1 0.561908 0.370465 0.305094
631 1 0.683507 0.373085 0.310731
635 1 0.817772 0.377674 0.312677
639 1 0.941219 0.370248 0.311853
616 1 0.122892 0.427797 0.313457
620 1 0.245766 0.438146 0.313533
624 1 0.376032 0.434837 0.304685
628 1 0.495868 0.434215 0.305822
632 1 0.623003 0.436935 0.306826
636 1 0.752811 0.436287 0.299492
640 1 0.886806 0.434342 0.311003
612 1 1.00039 0.435838 0.31365
643 1 0.0609497 0.498555 0.30868
647 1 0.180861 0.493085 0.316407
651 1 0.308491 0.496116 0.306366
655 1 0.435502 0.500597 0.313239
659 1 0.560415 0.501129 0.314268
663 1 0.680232 0.494864 0.314455
667 1 0.816722 0.49833 0.30515
671 1 0.940723 0.498526 0.318081
648 1 0.129496 0.566121 0.314294
652 1 0.239626 0.557807 0.301359
656 1 0.377846 0.565419 0.309272
660 1 0.499248 0.560939 0.316696
664 1 0.619613 0.562695 0.312042
668 1 0.749878 0.563395 0.311699
672 1 0.877582 0.557076 0.312626
644 1 0.00343613 0.570067 0.319172
675 1 0.0549145 0.629082 0.305437
679 1 0.184635 0.631454 0.313791
683 1 0.308023 0.622433 0.303285
687 1 0.426283 0.632249 0.306532
691 1 0.556991 0.622385 0.318132
695 1 0.689407 0.627887 0.316573
699 1 0.813556 0.625029 0.323495
703 1 0.941844 0.630553 0.312504
680 1 0.125216 0.695237 0.313028
684 1 0.253062 0.693439 0.315903
688 1 0.367808 0.69404 0.310774
692 1 0.501663 0.684575 0.317965
696 1 0.620523 0.683808 0.319914
700 1 0.7537 0.682725 0.316387
704 1 0.883587 0.691518 0.312704
676 1 0.995456 0.696375 0.31244
707 1 0.0650369 0.758423 0.314341
711 1 0.194555 0.753584 0.315784
715 1 0.315814 0.759653 0.315013
719 1 0.437651 0.745648 0.299017
723 1 0.559231 0.746226 0.315079
727 1 0.68699 0.747306 0.318694
731 1 0.817411 0.747568 0.309332
735 1 0.937667 0.758408 0.320522
708 1 0.000269012 0.811484 0.309277
712 1 0.12013 0.816451 0.322206
716 1 0.246936 0.815233 0.309266
720 1 0.379878 0.811081 0.31175
724 1 0.492869 0.806666 0.30288
728 1 0.636575 0.817289 0.31565
732 1 0.745462 0.813805 0.317175
736 1 0.883462 0.825096 0.312671
739 1 0.0589739 0.880793 0.303302
743 1 0.188817 0.87793 0.308626
747 1 0.305538 0.881612 0.311957
751 1 0.443149 0.87771 0.305836
755 1 0.570827 0.869161 0.307839
759 1 0.683069 0.88018 0.318043
763 1 0.811736 0.872349 0.315502
744 1 0.124926 0.930167 0.311113
752 1 0.371198 0.945623 0.310445
767 1 0.951741 0.880821 0.306321
740 1 0.00784516 0.944565 0.316135
748 1 0.246567 0.938151 0.316754
756 1 0.506163 0.927544 0.31339
760 1 0.625213 0.938251 0.310483
535 1 0.683649 0.994532 0.313741
764 1 0.754873 0.943993 0.314901
768 1 0.871051 0.931907 0.318096
773 1 0.12895 0.996982 0.373889
777 1 0.248651 0.995357 0.378404
781 1 0.378033 0.00212246 0.375871
785 1 0.497367 0.000699233 0.373196
793 1 0.756225 0.00571228 0.372169
769 1 0.00365036 0.00273073 0.371576
770 1 0.0620624 0.0635181 0.374803
774 1 0.184836 0.0639847 0.376146
778 1 0.316789 0.0633043 0.376776
782 1 0.436982 0.0624423 0.368461
786 1 0.559566 0.056367 0.372776
790 1 0.686287 0.0655506 0.370821
794 1 0.809423 0.0708209 0.369934
798 1 0.946858 0.0602591 0.379691
805 1 0.11992 0.125881 0.375062
809 1 0.246453 0.128376 0.364749
813 1 0.377303 0.123143 0.3711
817 1 0.499732 0.116996 0.384277
821 1 0.628798 0.12226 0.375682
825 1 0.748249 0.124767 0.374039
829 1 0.878089 0.136199 0.375897
801 1 -0.00110273 0.135392 0.375289
802 1 0.0653973 0.18928 0.376456
806 1 0.18507 0.183789 0.375787
810 1 0.314097 0.180624 0.36495
814 1 0.434866 0.184208 0.376019
818 1 0.56978 0.186859 0.380013
822 1 0.695751 0.19169 0.376069
826 1 0.810469 0.193933 0.375661
830 1 0.942852 0.1912 0.383634
837 1 0.126955 0.252502 0.3791
841 1 0.248719 0.251628 0.372981
845 1 0.379707 0.247527 0.37553
849 1 0.502298 0.244268 0.372469
853 1 0.62561 0.251349 0.370875
857 1 0.7521 0.25613 0.36888
861 1 0.873416 0.250658 0.370816
833 1 0.0013953 0.248924 0.374045
834 1 0.0568907 0.311179 0.378311
838 1 0.178746 0.318802 0.375557
842 1 0.31068 0.312841 0.379498
846 1 0.431356 0.316031 0.377694
850 1 0.561294 0.30931 0.370562
854 1 0.690886 0.315501 0.36941
858 1 0.817132 0.314319 0.367777
862 1 0.9339 0.304773 0.380306
869 1 0.122121 0.372699 0.382799
873 1 0.246246 0.370273 0.381895
877 1 0.369454 0.376878 0.380993
881 1 0.501136 0.373094 0.365574
885 1 0.618962 0.376012 0.378853
889 1 0.753071 0.376079 0.363419
893 1 0.877514 0.372633 0.372175
865 1 0.00354746 0.375174 0.384828
866 1 0.0619694 0.445655 0.373601
870 1 0.18336 0.445094 0.375183
874 1 0.312601 0.437447 0.37767
878 1 0.442205 0.433615 0.370622
882 1 0.561077 0.436099 0.373023
886 1 0.683274 0.431787 0.369133
890 1 0.819364 0.435546 0.367836
894 1 0.944749 0.435828 0.373864
897 1 1.00006 0.502001 0.384091
901 1 0.121636 0.502426 0.37764
905 1 0.24628 0.494557 0.373921
909 1 0.372135 0.495285 0.36872
913 1 0.49706 0.499058 0.369626
917 1 0.624728 0.500089 0.37905
921 1 0.751674 0.490766 0.363863
925 1 0.882485 0.497792 0.377861
898 1 0.0563283 0.564598 0.380711
902 1 0.193493 0.557279 0.37422
906 1 0.305538 0.559407 0.360794
910 1 0.433819 0.569226 0.370283
914 1 0.562045 0.55838 0.373656
918 1 0.685172 0.563427 0.371479
922 1 0.817896 0.557166 0.370217
926 1 0.939726 0.556853 0.375097
929 1 1.00051 0.629587 0.378575
933 1 0.117279 0.629461 0.371715
937 1 0.249255 0.633101 0.371657
941 1 0.371304 0.621964 0.372477
945 1 0.502422 0.628009 0.378981
949 1 0.627176 0.630024 0.391084
953 1 0.745366 0.623144 0.377868
957 1 0.879965 0.632568 0.36941
930 1 0.0671891 0.691478 0.372
934 1 0.187439 0.688651 0.368394
938 1 0.314703 0.687843 0.37548
942 1 0.433606 0.690293 0.369359
946 1 0.560544 0.692929 0.382353
950 1 0.680303 0.687954 0.375071
954 1 0.807066 0.68279 0.381169
958 1 0.939975 0.68969 0.373548
961 1 0.00698262 0.752085 0.376595
965 1 0.117394 0.754349 0.380919
969 1 0.24648 0.747832 0.376783
973 1 0.371947 0.74569 0.377731
977 1 0.49163 0.750512 0.36278
981 1 0.621739 0.75385 0.374648
985 1 0.746985 0.741189 0.376124
989 1 0.874711 0.752369 0.372883
962 1 0.0597388 0.820803 0.37738
966 1 0.186155 0.819705 0.372135
970 1 0.303943 0.805971 0.387367
974 1 0.43548 0.811993 0.373565
978 1 0.566355 0.815855 0.372549
982 1 0.693171 0.816011 0.378821
986 1 0.803754 0.809233 0.378191
990 1 0.935243 0.813934 0.378546
997 1 0.122473 0.87473 0.379422
1001 1 0.252049 0.880219 0.382566
1005 1 0.374272 0.874061 0.368484
1009 1 0.496168 0.868033 0.37052
1013 1 0.624468 0.871741 0.376119
1017 1 0.753938 0.879537 0.37518
1021 1 0.876315 0.868951 0.382288
993 1 0.995531 0.873068 0.379621
994 1 0.0656652 0.942452 0.379654
998 1 0.181168 0.938307 0.380777
1002 1 0.312093 0.936824 0.368383
1006 1 0.436606 0.935318 0.370428
1010 1 0.56634 0.940876 0.372983
1014 1 0.69072 0.935327 0.371026
1018 1 0.816137 0.941232 0.380137
1022 1 0.931357 0.930532 0.380331
789 1 0.621698 -0.000561746 0.371683
797 1 0.871129 0.00583912 0.37448
776 1 0.123239 0.0576782 0.445242
775 1 0.188088 0.00021377 0.438502
779 1 0.312122 0.00107061 0.443217
784 1 0.370957 0.059857 0.43601
783 1 0.432107 1.00082 0.442933
787 1 0.569464 -0.00102608 0.43309
791 1 0.692565 0.00183325 0.427573
796 1 0.748958 0.0661544 0.430149
795 1 0.818976 0.99517 0.43787
799 1 0.937253 0.990784 0.436156
780 1 0.252332 0.0648394 0.422916
788 1 0.499263 0.0487413 0.437774
792 1 0.627866 0.0610219 0.438329
823 1 0.685539 0.122746 0.436784
800 1 0.869561 0.0637014 0.438904
772 1 0.00259167 0.0692622 0.439236
803 1 0.0663379 0.121423 0.436298
807 1 0.179008 0.118711 0.440872
811 1 0.311166 0.12109 0.437398
815 1 0.434595 0.120561 0.43946
819 1 0.566746 0.123152 0.438807
827 1 0.816281 0.134881 0.435164
831 1 0.936168 0.12575 0.437907
804 1 -0.00104371 0.186278 0.444373
808 1 0.126007 0.192273 0.434532
812 1 0.249402 0.18097 0.442123
816 1 0.36427 0.182006 0.432769
820 1 0.499063 0.191346 0.433477
824 1 0.629298 0.186032 0.434502
828 1 0.755553 0.19101 0.439794
832 1 0.869242 0.198926 0.434442
835 1 0.0560623 0.25411 0.44035
839 1 0.19104 0.251404 0.439875
843 1 0.306992 0.252525 0.437845
847 1 0.440247 0.253103 0.437528
851 1 0.565315 0.249619 0.439224
855 1 0.697672 0.257613 0.428701
859 1 0.803975 0.253871 0.431406
863 1 0.939271 0.250056 0.440056
840 1 0.12566 0.317565 0.446592
844 1 0.247553 0.313816 0.44393
848 1 0.371692 0.30627 0.436022
852 1 0.498941 0.313552 0.434856
856 1 0.629715 0.304986 0.435641
860 1 0.754722 0.320708 0.426858
864 1 0.873409 0.317171 0.43573
836 1 0.00394325 0.319722 0.442475
867 1 0.062051 0.387282 0.438828
871 1 0.18657 0.375123 0.437134
875 1 0.314831 0.373118 0.441982
879 1 0.434883 0.381103 0.433925
883 1 0.557443 0.373623 0.43432
887 1 0.685159 0.374036 0.441637
891 1 0.813758 0.376539 0.426048