ITEM: TIMESTEP
100000
ITEM: NUMBER OF ATOMS
2048
ITEM: BOX BOUNDS pp pp pp
0.0000000000000000e+00 1.1093780389610155e+01
0.0000000000000000e+00 1.1093780389610155e+01
0.0000000000000000e+00 1.1093780389610155e+01
ITEM: ATOMS id type xs ys zs
6 1 0.189776 0.0599425 0.00294901
14 1 0.436444 0.0594477 0.00475558
18 1 0.563145 0.0623857 0.00183287
33 1 0.00243793 0.127493 0.00157225
37 1 0.128152 0.120737 -0.000588985
55 1 0.686491 0.123132 0.0639955
61 1 0.874764 0.124745 0.999668
38 1 0.188857 0.183505 0.99928
42 1 0.311737 0.187671 0.998027
52 1 0.499021 0.185301 0.0632383
58 1 0.814118 0.189211 0.0011166
62 1 0.941235 0.189954 0.998258
69 1 0.127737 0.249051 0.994961
77 1 0.376646 0.250509 0.00108626
93 1 0.873302 0.248934 0.995155
65 1 1.0012 0.24907 -0.00113707
70 1 0.187073 0.312145 0.997093
78 1 0.442265 0.312089 0.00421468
90 1 0.811395 0.313418 0.995138
94 1 0.935389 0.311888 0.997076
97 1 0.999342 0.373601 1.00053
109 1 0.378307 0.371428 0.00629087
117 1 0.627626 0.37409 0.999603
125 1 0.876277 0.372152 -0.000248376
122 1 0.810645 0.433439 1.0016
133 1 0.119808 0.500371 0.999667
137 1 0.249059 0.497988 0.996518
129 1 0.997338 0.496193 0.000835134
130 1 0.0593553 0.559143 0.0016316
134 1 0.18828 0.559306 0.000988937
138 1 0.312496 0.561348 0.999679
144 1 0.373704 0.563893 0.0613624
150 1 0.685033 0.565395 0.000784493
165 1 0.127097 0.620035 -0.000633611
169 1 0.253854 0.627509 0.997199
175 1 0.437614 0.625024 0.0637997
185 1 0.749021 0.624758 0.00107212
164 1 1.00231 0.689305 0.0634807
162 1 0.0637799 0.687301 0.00169988
170 1 0.310793 0.689204 0.00418541
182 1 0.686395 0.686165 -0.00135312
193 1 0.997864 0.749028 0.999512
201 1 0.248357 0.751448 1.00015
209 1 0.500211 0.747253 0.99888
213 1 0.624035 0.746902 0.99742
221 1 0.874856 0.748718 0.00166056
202 1 0.312009 0.812832 1.00078
206 1 0.441129 0.81355 0.999424
225 1 0.999518 0.873967 0.99535
229 1 0.127859 0.871431 0.00223772
237 1 0.377965 0.874422 0.997274
241 1 0.502361 0.875305 0.00108146
249 1 0.751513 0.87431 0.00100387
253 1 0.871057 0.872417 0.00038903
255 1 0.937304 0.874313 0.0622761
226 1 0.0640877 0.937344 0.000667555
234 1 0.312534 0.93503 0.00148477
242 1 0.560935 0.938276 0.992868
250 1 0.809682 0.933048 0.998648
254 1 0.933839 0.933806 0.00324581
5 1 0.129694 0.997715 0.0026761
9 1 0.251844 0.99991 0.00228641
17 1 0.500533 9.63705e-05 -0.000122115
1 1 0.996132 0.995945 0.996843
7 1 0.189681 0.00130747 0.068558
11 1 0.309786 0.00146737 0.0631801
15 1 0.435578 0.998978 0.0622557
19 1 0.560268 -0.00126192 0.0627632
28 1 0.751347 0.0633163 0.0643892
27 1 0.809675 0.000831477 0.0579508
31 1 0.936392 0.994881 0.0606499
8 1 0.128444 0.0631751 0.0650674
12 1 0.252528 0.062927 0.065793
16 1 0.373314 0.0640323 0.0639371
20 1 0.50153 0.0628133 0.0619195
24 1 0.625139 0.0588189 0.0647365
32 1 0.878368 0.0597898 0.0609217
4 1 0.998402 0.0585449 0.0616028
35 1 0.0658751 0.125841 0.0601016
39 1 0.190423 0.124075 0.0616106
43 1 0.309242 0.128157 0.060132
47 1 0.437296 0.122528 0.0618749
51 1 0.567193 0.123609 0.0671539
59 1 0.816694 0.124544 0.0631857
63 1 0.93806 0.126649 0.0640545
40 1 0.124908 0.187892 0.0607389
44 1 0.250388 0.18819 0.0606469
48 1 0.37913 0.185953 0.0675057
56 1 0.626118 0.188343 0.0635635
60 1 0.749163 0.187855 0.0644707
64 1 0.876369 0.186447 0.0602465
36 1 0.999246 0.189887 0.0609727
67 1 0.0618403 0.248461 0.0639469
71 1 0.185543 0.252232 0.0623819
75 1 0.310395 0.24774 0.0597694
79 1 0.438856 0.247236 0.062447
83 1 0.565619 0.250215 0.0655402
87 1 0.691062 0.25104 0.0641645
91 1 0.817518 0.248364 0.0646956
95 1 0.934842 0.253416 0.0644896
68 1 0.998529 0.311173 0.0625747
72 1 0.119267 0.307735 0.0625675
76 1 0.251897 0.313891 0.0590559
80 1 0.373224 0.309849 0.0630716
84 1 0.500837 0.314445 0.0661582
88 1 0.62269 0.313681 0.0609349
92 1 0.752903 0.308369 0.0654668
96 1 0.873475 0.312635 0.0637721
99 1 0.0604504 0.377005 0.0593426
103 1 0.185142 0.373108 0.0625972
107 1 0.31511 0.374414 0.0661921
111 1 0.435245 0.370613 0.0677582
115 1 0.562689 0.37827 0.0662148
119 1 0.69107 0.37745 0.0660359
123 1 0.809606 0.367343 0.0611169
127 1 0.940142 0.374365 0.0619086
104 1 0.12468 0.438263 0.0588816
108 1 0.253518 0.432987 0.0576251
112 1 0.377857 0.4364 0.0620911
116 1 0.498604 0.441481 0.0654552
120 1 0.62464 0.437003 0.0660184
124 1 0.753327 0.436956 0.0651069
128 1 0.876153 0.434032 0.061184
100 1 0.994844 0.436102 0.0602969
131 1 0.059138 0.499168 0.0631375
135 1 0.186098 0.497077 0.0635171
139 1 0.3078 0.501988 0.0599215
143 1 0.43508 0.499898 0.0614474
147 1 0.559553 0.502688 0.0657297
151 1 0.686173 0.498702 0.0629989
155 1 0.815128 0.501298 0.0602887
159 1 0.934135 0.498023 0.0601781
136 1 0.123696 0.558918 0.0610708
140 1 0.249895 0.563966 0.062258
148 1 0.499172 0.564152 0.0580648
152 1 0.627267 0.561239 0.0656331
156 1 0.751988 0.561996 0.0619185
160 1 0.879049 0.564895 0.0646595
132 1 0.997879 0.565389 0.0696459
163 1 0.0627175 0.621784 0.0625778
167 1 0.186997 0.626821 0.058584
171 1 0.312482 0.623638 0.0606989
179 1 0.559917 0.628402 0.060622
183 1 0.686408 0.624531 0.0618974
187 1 0.813192 0.627838 0.0608864
191 1 0.93992 0.628909 0.059383
168 1 0.124318 0.681091 0.0626601
172 1 0.247409 0.686488 0.0601272
176 1 0.375266 0.688056 0.065119
180 1 0.502168 0.69103 0.0633435
184 1 0.622698 0.689145 0.061928
188 1 0.748616 0.690534 0.0646391
192 1 0.875771 0.685123 0.0598218
195 1 0.0615498 0.749044 0.0617979
199 1 0.18792 0.748424 0.0644301
203 1 0.311823 0.751725 0.063333
207 1 0.439588 0.751059 0.0590702
211 1 0.561209 0.755721 0.0627788
215 1 0.687704 0.750158 0.0600655
219 1 0.806397 0.749441 0.0631605
223 1 0.937577 0.751827 0.0635137
200 1 0.126202 0.813921 0.0616907
204 1 0.251997 0.814359 0.0631098
208 1 0.377083 0.815079 0.0594823
212 1 0.49967 0.81415 0.0584255
216 1 0.630899 0.815891 0.0597971
220 1 0.749698 0.815611 0.0632558
224 1 0.877817 0.813459 0.0608044
196 1 0.000364778 0.810941 0.0592658
227 1 0.0609685 0.872482 0.0620293
231 1 0.189103 0.878678 0.0617175
235 1 0.311114 0.877917 0.0675984
239 1 0.434415 0.876164 0.0598767
243 1 0.566338 0.878642 0.0610333
247 1 0.685885 0.880227 0.0592519
251 1 0.814136 0.87625 0.0625218
232 1 0.123756 0.938517 0.0681697
236 1 0.249779 0.937733 0.0651956
244 1 0.500322 0.938663 0.0625572
248 1 0.623637 0.942959 0.0621883
252 1 0.751642 0.938182 0.0598828
256 1 0.871116 0.943427 0.0599274
228 1 1.00126 0.935022 0.0574795
3 1 0.061608 0.999625 0.068488
240 1 0.374089 0.941455 0.0650487
23 1 0.689825 0.000703971 0.0581672
261 1 0.125983 0.999903 0.130006
262 1 0.18701 0.0659647 0.126476
277 1 0.62566 0.000129234 0.127285
281 1 0.751135 0.99891 0.12154
258 1 0.0631871 0.0609983 0.123656
266 1 0.31289 0.0636827 0.12925
270 1 0.436024 0.0640173 0.124345
274 1 0.563631 0.0590352 0.124824
278 1 0.688681 0.065228 0.126444
282 1 0.815964 0.0600864 0.126337
286 1 0.939107 0.0651205 0.127324
289 1 0.00178905 0.124434 0.121684
293 1 0.122493 0.125602 0.126252
297 1 0.250067 0.126923 0.123705
301 1 0.373952 0.124231 0.130299
305 1 0.499894 0.122543 0.124301
309 1 0.624514 0.127477 0.126868
313 1 0.753895 0.126068 0.125906
317 1 0.878216 0.123201 0.122489
290 1 0.0618764 0.186819 0.121606
294 1 0.184976 0.188678 0.119378
298 1 0.311698 0.1866 0.124856
302 1 0.439668 0.186209 0.127053
306 1 0.559812 0.186268 0.128253
310 1 0.690399 0.185406 0.125649
314 1 0.816234 0.184537 0.126468
318 1 0.935482 0.189582 0.125353
321 1 0.999583 0.246669 0.12456
325 1 0.123429 0.25288 0.125941
329 1 0.24953 0.249451 0.123364
333 1 0.377764 0.246134 0.128558
337 1 0.50082 0.250709 0.124299
341 1 0.626759 0.252614 0.123824
345 1 0.750177 0.246839 0.124783
349 1 0.874318 0.249319 0.126094
322 1 0.0586197 0.313954 0.126181
326 1 0.189699 0.31224 0.124876
330 1 0.309937 0.311256 0.12585
334 1 0.434872 0.308929 0.126328
338 1 0.565446 0.315263 0.124989
342 1 0.686525 0.312502 0.126415
346 1 0.814215 0.311532 0.128497
350 1 0.937222 0.31478 0.126065
357 1 0.127733 0.373673 0.123772
361 1 0.24985 0.377314 0.123029
365 1 0.37298 0.37309 0.126141
369 1 0.501787 0.380725 0.127678
373 1 0.627785 0.377261 0.127337
377 1 0.75147 0.37587 0.132169
381 1 0.878294 0.3751 0.126747
353 1 0.000547753 0.375262 0.124987
354 1 0.0676116 0.432482 0.12295
358 1 0.18572 0.437593 0.123579
362 1 0.309451 0.438017 0.121997
366 1 0.435525 0.437754 0.126725
370 1 0.5622 0.441802 0.124462
374 1 0.689947 0.439745 0.128935
378 1 0.815168 0.436041 0.131413
382 1 0.934756 0.437101 0.125091
389 1 0.122467 0.498519 0.125759
393 1 0.246102 0.498986 0.123191
397 1 0.374506 0.503312 0.125708
401 1 0.494453 0.502527 0.122192
405 1 0.626197 0.501525 0.129246
409 1 0.754627 0.50415 0.122739
413 1 0.872127 0.501408 0.124839
385 1 0.00260298 0.492742 0.12471
386 1 0.060485 0.558759 0.128351
390 1 0.188985 0.564861 0.126018
394 1 0.314072 0.560819 0.123526
398 1 0.435854 0.56482 0.126135
402 1 0.559163 0.563785 0.122414
406 1 0.689551 0.560819 0.126481
410 1 0.813184 0.564633 0.122049
414 1 0.938717 0.560151 0.12841
417 1 1.00085 0.629443 0.125445
421 1 0.12708 0.625611 0.127091
425 1 0.252412 0.624203 0.124571
429 1 0.375057 0.626834 0.124741
433 1 0.501183 0.630076 0.127282
437 1 0.622091 0.628208 0.124127
441 1 0.746362 0.62524 0.121519
445 1 0.877594 0.624707 0.124218
418 1 0.063573 0.683892 0.12698
422 1 0.188305 0.685426 0.123897
426 1 0.312064 0.692378 0.124501
430 1 0.439723 0.691113 0.124336
434 1 0.563541 0.690858 0.124643
438 1 0.68561 0.687895 0.123057
442 1 0.81335 0.687661 0.125651
446 1 0.936169 0.685942 0.123639
449 1 1.00081 0.753084 0.123658
453 1 0.124588 0.748185 0.121413
457 1 0.252725 0.752056 0.123719
461 1 0.378918 0.751632 0.125039
465 1 0.497621 0.754215 0.128266
469 1 0.628345 0.751124 0.124359
473 1 0.748463 0.753531 0.123743
477 1 0.873661 0.752769 0.123977
450 1 0.0684248 0.810877 0.122385
454 1 0.188694 0.811414 0.12182
458 1 0.317562 0.815788 0.12381
462 1 0.436061 0.81749 0.123735
466 1 0.563744 0.813176 0.124292
470 1 0.689195 0.816929 0.12153
474 1 0.810807 0.811432 0.126855
478 1 0.935962 0.811937 0.124294
485 1 0.127326 0.875605 0.121881
489 1 0.247839 0.874825 0.129897
493 1 0.375614 0.878793 0.126761
497 1 0.500995 0.876196 0.120359
501 1 0.625177 0.874689 0.123262
505 1 0.748403 0.876425 0.126748
509 1 0.873908 0.878735 0.120037
481 1 0.00469801 0.872836 0.126489
482 1 0.0635362 0.930687 0.126822
486 1 0.187793 0.93692 0.125998
490 1 0.309912 0.939954 0.126312
494 1 0.435771 0.939175 0.125176
498 1 0.561811 0.938115 0.124596
502 1 0.688083 0.938674 0.1239
506 1 0.810822 0.937179 0.123302
510 1 0.937504 0.93853 0.12542
265 1 0.250028 0.00111632 0.129993
269 1 0.370938 0.00283679 0.124713
273 1 0.498757 0.999609 0.123594
285 1 0.873245 0.995996 0.12521
257 1 0.999714 0.997219 0.125891
263 1 0.186333 0.00269643 0.190959
267 1 0.315163 0.00119151 0.189167
271 1 0.437838 0.999246 0.18674
275 1 0.566741 0.99943 0.186827
279 1 0.687732 0.00135451 0.188203
283 1 0.812014 0.999191 0.187495
264 1 0.123597 0.0658391 0.189081
268 1 0.250087 0.0634465 0.189153
272 1 0.378384 0.0611092 0.18871
276 1 0.494559 0.0643036 0.183151
280 1 0.624968 0.0630505 0.185426
284 1 0.752504 0.0638445 0.188484
288 1 0.880416 0.0616577 0.189842
260 1 0.000426029 0.0629456 0.185545
291 1 0.0618728 0.125738 0.184938
295 1 0.185341 0.12084 0.188884
299 1 0.308639 0.124818 0.190794
303 1 0.441137 0.124368 0.19133
307 1 0.562335 0.124025 0.186874
311 1 0.689661 0.127064 0.190326
315 1 0.817066 0.121 0.187455
319 1 0.938327 0.127543 0.190139
296 1 0.122019 0.188998 0.183477
300 1 0.243573 0.186779 0.185994
304 1 0.376657 0.185963 0.189574
308 1 0.500703 0.18453 0.188784
312 1 0.621867 0.189243 0.187536
316 1 0.754382 0.184417 0.188653
320 1 0.873109 0.185312 0.190949
292 1 0.997769 0.188023 0.191942
323 1 0.0617664 0.248625 0.18848
327 1 0.187349 0.249005 0.186496
331 1 0.307009 0.247367 0.187424
335 1 0.440767 0.244764 0.190017
339 1 0.561283 0.249848 0.187817
343 1 0.687962 0.248215 0.187626
347 1 0.815056 0.250622 0.191858
351 1 0.938038 0.250386 0.185836
328 1 0.12429 0.316489 0.191746
332 1 0.249861 0.31224 0.186854
336 1 0.373085 0.31329 0.19006
340 1 0.498383 0.313791 0.18816
344 1 0.627776 0.311055 0.191971
348 1 0.749584 0.307431 0.189668
352 1 0.879932 0.313008 0.190086
324 1 -0.00393755 0.310923 0.188667
355 1 0.062817 0.376442 0.1881
359 1 0.188087 0.375847 0.185524
363 1 0.312841 0.378376 0.187572
367 1 0.435444 0.377237 0.186837
371 1 0.564806 0.374733 0.187508
375 1 0.690626 0.375538 0.190278
379 1 0.816038 0.375306 0.190554
383 1 0.936493 0.376995 0.18952
360 1 0.127236 0.437011 0.187057
364 1 0.248347 0.440201 0.185743
368 1 0.375661 0.438459 0.18637
372 1 0.498157 0.438345 0.187848
376 1 0.627777 0.435044 0.188729
380 1 0.750986 0.437594 0.187878
384 1 0.877723 0.439287 0.18898
356 1 2.80702e-05 0.436855 0.189524
387 1 0.0660047 0.49633 0.187558
391 1 0.187703 0.500604 0.185827
395 1 0.306818 0.501248 0.186178
399 1 0.433947 0.503308 0.186828
403 1 0.561586 0.501479 0.188115
407 1 0.686576 0.500004 0.191263
411 1 0.815764 0.502808 0.188443
415 1 0.940815 0.501934 0.18858
388 1 0.00119094 0.566202 0.188673
392 1 0.123525 0.565209 0.190167
396 1 0.247841 0.564997 0.191025
400 1 0.372653 0.563306 0.187552
404 1 0.501074 0.56754 0.186388
408 1 0.624957 0.563995 0.186168
412 1 0.754172 0.563872 0.189308
416 1 0.876238 0.564537 0.18779
419 1 0.0614463 0.627745 0.186732
423 1 0.188614 0.629722 0.188128
427 1 0.313837 0.62357 0.185094
431 1 0.436655 0.629561 0.187347
435 1 0.562828 0.626512 0.191534
439 1 0.690905 0.628139 0.185474
443 1 0.815104 0.629702 0.1881
447 1 0.937309 0.6268 0.186662
420 1 -0.000347852 0.690725 0.190417
424 1 0.127279 0.688465 0.185145
428 1 0.255763 0.688394 0.186941
432 1 0.375409 0.689463 0.185252
436 1 0.501985 0.690944 0.187722
440 1 0.621661 0.689948 0.188274
444 1 0.751585 0.688794 0.187045
448 1 0.876731 0.689334 0.187159
451 1 0.0645392 0.74954 0.185991
455 1 0.188332 0.747898 0.179604
459 1 0.315997 0.751748 0.185396
463 1 0.436204 0.748944 0.187927
467 1 0.563012 0.75463 0.185687
471 1 0.687611 0.747678 0.187341
475 1 0.812221 0.749331 0.18555
479 1 0.936188 0.751181 0.184614
456 1 0.129042 0.811205 0.185005
460 1 0.250556 0.813336 0.18773
464 1 0.376734 0.818447 0.183735
468 1 0.503413 0.814067 0.188905
472 1 0.62693 0.810213 0.184256
476 1 0.749332 0.810824 0.186292
480 1 0.87323 0.812935 0.185656
452 1 0.998359 0.809544 0.190231
483 1 0.0693355 0.870527 0.185975
487 1 0.186907 0.873019 0.187654
491 1 0.312649 0.877106 0.186946
495 1 0.440975 0.877229 0.189677
499 1 0.564182 0.872971 0.186661
503 1 0.68577 0.87574 0.186317
507 1 0.810203 0.875945 0.188646
511 1 0.935882 0.872191 0.185595
488 1 0.127761 0.934747 0.187211
492 1 0.250997 0.94048 0.189472
496 1 0.376911 0.939896 0.186536
504 1 0.624409 0.937822 0.184995
512 1 0.874172 0.936907 0.186148
484 1 0.00213217 0.930736 0.190379
259 1 0.0605629 0.999461 0.187134
500 1 0.498406 0.942677 0.188615
508 1 0.748968 0.941452 0.188586
287 1 0.941754 0.997396 0.187088
517 1 0.124983 -0.00131416 0.249336
521 1 0.254724 0.998946 0.250839
525 1 0.375647 1.00071 0.249982
529 1 0.501259 6.12103e-05 0.25112
533 1 0.625962 -0.000894222 0.252291
537 1 0.74706 0.00413298 0.250869
541 1 0.87875 1.00089 0.25191
513 1 0.00411456 0.99701 0.247025
514 1 0.0630734 0.0655506 0.24989
518 1 0.184862 0.0613455 0.252459
522 1 0.31708 0.0616525 0.252436
526 1 0.440026 0.0622981 0.251122
530 1 0.567487 0.063547 0.245284
534 1 0.688075 0.0627023 0.249909
538 1 0.816725 0.0609416 0.250503
542 1 0.941631 0.0635106 0.248564
549 1 0.124867 0.128506 0.255323
553 1 0.249468 0.124242 0.252343
557 1 0.372615 0.123094 0.250835
561 1 0.499526 0.121054 0.251027
565 1 0.627417 0.126505 0.251904
569 1 0.753167 0.121993 0.254477
573 1 0.874576 0.126392 0.250825
545 1 0.00166451 0.12659 0.251471
546 1 0.0661185 0.189207 0.249809
550 1 0.186907 0.18784 0.252251
554 1 0.31318 0.187079 0.251688
558 1 0.433729 0.184807 0.254107
562 1 0.560261 0.180811 0.254375
566 1 0.68811 0.188807 0.249235
570 1 0.813578 0.188796 0.253209
574 1 0.93854 0.186682 0.252007
577 1 0.000602864 0.249496 0.253533
581 1 0.127611 0.250071 0.25014
585 1 0.249748 0.246884 0.24931
589 1 0.371131 0.250811 0.247656
593 1 0.499731 0.251473 0.25073
597 1 0.621123 0.251223 0.248803
601 1 0.747513 0.248609 0.252493
605 1 0.879083 0.248265 0.247943
578 1 0.0648969 0.312774 0.252226
582 1 0.190687 0.312238 0.249097
586 1 0.309686 0.314287 0.249238
590 1 0.435975 0.316752 0.249123
594 1 0.558926 0.313798 0.251545
598 1 0.685892 0.311425 0.250606
602 1 0.814065 0.311969 0.250414
606 1 0.938826 0.316661 0.249709
609 1 0.0046874 0.373045 0.25539
613 1 0.127755 0.374028 0.251791
617 1 0.251458 0.378236 0.252433
621 1 0.371878 0.376205 0.249609
625 1 0.49683 0.378271 0.248759
629 1 0.625287 0.379181 0.252282
633 1 0.750676 0.376658 0.248211
637 1 0.879157 0.375994 0.255889
610 1 0.0632975 0.43736 0.254517
614 1 0.18677 0.436195 0.250198
618 1 0.310881 0.440659 0.250516
622 1 0.438392 0.439775 0.249762
626 1 0.562009 0.438802 0.248036
630 1 0.688584 0.439402 0.250341
634 1 0.815219 0.440793 0.251536
638 1 0.935778 0.437996 0.249336
645 1 0.123631 0.503851 0.249282
649 1 0.248512 0.499374 0.254151
653 1 0.373156 0.503772 0.251063
657 1 0.497683 0.500131 0.249976
661 1 0.624655 0.503191 0.254642
665 1 0.750833 0.498253 0.247364
669 1 0.87963 0.501825 0.250261
641 1 0.00276008 0.495135 0.253421
642 1 0.0599272 0.562844 0.256646
646 1 0.185771 0.567239 0.247487
650 1 0.311492 0.562159 0.249298
654 1 0.441198 0.564211 0.248425
658 1 0.559553 0.561527 0.251497
662 1 0.686396 0.565292 0.247002
666 1 0.816404 0.559804 0.254851
670 1 0.937872 0.568259 0.247761
673 1 0.000242619 0.627618 0.247775
677 1 0.125733 0.62867 0.249462
681 1 0.252236 0.626046 0.248061
685 1 0.377716 0.626075 0.24938
689 1 0.500384 0.62793 0.249085
693 1 0.6242 0.626276 0.249945
697 1 0.752203 0.63071 0.248937
701 1 0.876236 0.627433 0.250373
674 1 0.062215 0.687672 0.250742
678 1 0.190666 0.688584 0.247103
682 1 0.315874 0.683706 0.244283
686 1 0.438777 0.691628 0.251159
690 1 0.564887 0.688349 0.251118
694 1 0.688875 0.6916 0.250546
698 1 0.814744 0.689888 0.250786
702 1 0.93837 0.689281 0.255076
709 1 0.129114 0.750423 0.246329
713 1 0.254691 0.748733 0.247137
717 1 0.372251 0.749379 0.249034
721 1 0.503156 0.751 0.250959
725 1 0.626929 0.749247 0.249735
729 1 0.75073 0.750865 0.250289
733 1 0.872024 0.751223 0.249017
705 1 0.00132714 0.747653 0.250547
706 1 0.0636743 0.80872 0.246016
710 1 0.191506 0.81087 0.24742
714 1 0.315053 0.816868 0.245929
718 1 0.440961 0.818837 0.245838
722 1 0.562857 0.809963 0.250306
726 1 0.685943 0.813759 0.246144
730 1 0.810123 0.813757 0.250251
734 1 0.932428 0.815136 0.249161
741 1 0.127591 0.870749 0.24949
745 1 0.251425 0.875657 0.247065
749 1 0.377893 0.877459 0.246577
753 1 0.503868 0.876614 0.251385
757 1 0.626508 0.871698 0.247679
761 1 0.746744 0.87653 0.248447
765 1 0.873321 0.876962 0.247957
737 1 0.00486432 0.871742 0.250371
738 1 0.068571 0.934113 0.24665
742 1 0.190133 0.937707 0.254392
750 1 0.435933 0.937115 0.248891
754 1 0.562961 0.936572 0.248795
758 1 0.686416 0.938837 0.247853
762 1 0.810467 0.936911 0.248864
766 1 0.937329 0.934521 0.246779
746 1 0.31566 0.937313 0.250055
519 1 0.189043 -0.000719314 0.312121
523 1 0.314042 0.00252812 0.315495
539 1 0.814474 1.00107 0.309541
516 1 0.998842 0.0629515 0.31367
520 1 0.122937 0.0628033 0.312663
524 1 0.249431 0.0603303 0.308124
528 1 0.377171 0.0609603 0.311655
532 1 0.500094 0.0640615 0.313699
536 1 0.624973 0.064298 0.313505
540 1 0.751939 0.0651039 0.315044
544 1 0.878235 0.0635381 0.312104
547 1 0.0640402 0.12683 0.313687
551 1 0.185653 0.123319 0.313017
555 1 0.313043 0.121847 0.318134
559 1 0.440363 0.122518 0.314299
563 1 0.562689 0.12312 0.315992
567 1 0.686824 0.12604 0.311686
571 1 0.816489 0.124027 0.308953
575 1 0.937146 0.124706 0.310233
552 1 0.126498 0.191413 0.319043
556 1 0.249688 0.188221 0.311262
560 1 0.374707 0.183581 0.313741
564 1 0.498991 0.18624 0.312352
568 1 0.623473 0.188461 0.316534
572 1 0.749177 0.187091 0.308501
576 1 0.877551 0.188071 0.310322
548 1 0.00229168 0.190899 0.313991
579 1 0.0604103 0.249865 0.31806
583 1 0.188531 0.246553 0.316769
587 1 0.309079 0.254028 0.312682
591 1 0.434318 0.249921 0.311467
595 1 0.562516 0.247215 0.310142
599 1 0.685306 0.250411 0.315381
603 1 0.814626 0.251781 0.314162
607 1 0.935461 0.251309 0.30969
584 1 0.128564 0.312162 0.306501
588 1 0.250182 0.313872 0.313958
592 1 0.376225 0.31558 0.311118
596 1 0.499552 0.315694 0.310443
600 1 0.620054 0.312234 0.312503
604 1 0.749219 0.313423 0.311972
608 1 0.877537 0.310834 0.312589
580 1 0.998734 0.31291 0.315249
611 1 0.0619103 0.368971 0.316235
615 1 0.190935 0.377888 0.314103
619 1 0.310897 0.374913 0.31617
623 1 0.435134 0.380104 0.309325
627 1 0.561841 0.377863 0.312677
631 1 0.691143 0.374574 0.312199
635 1 0.811657 0.375583 0.310129
639 1 0.940988 0.373899 0.31412
616 1 0.122576 0.432737 0.315284
620 1 0.253256 0.436416 0.31662
624 1 0.371421 0.437617 0.317788
628 1 0.498156 0.438666 0.310872
632 1 0.625283 0.440022 0.316043
636 1 0.747677 0.436701 0.313266
640 1 0.875329 0.436228 0.316375
612 1 0.997605 0.438599 0.316
643 1 0.0643822 0.494793 0.315095
647 1 0.187646 0.499911 0.312998
651 1 0.312271 0.502425 0.314014
655 1 0.430891 0.503865 0.31413
659 1 0.559616 0.502557 0.313324
663 1 0.68832 0.502276 0.313632
667 1 0.810424 0.498136 0.314378
671 1 0.938231 0.50002 0.313211
648 1 0.125779 0.56001 0.312335
652 1 0.247424 0.563677 0.311829
656 1 0.374777 0.566068 0.313851
660 1 0.498773 0.565574 0.310437
664 1 0.622724 0.564105 0.310375
668 1 0.749482 0.564391 0.309548
672 1 0.876731 0.564142 0.317598
644 1 0.995407 0.56466 0.309701
675 1 0.0645717 0.629297 0.310485
679 1 0.183549 0.627437 0.310609
683 1 0.309485 0.623521 0.31188
687 1 0.438154 0.627966 0.309953
691 1 0.561417 0.628972 0.311523
695 1 0.686978 0.625532 0.30751
699 1 0.811898 0.625118 0.307723
703 1 0.935613 0.626543 0.313387
680 1 0.12565 0.692396 0.309179
684 1 0.252385 0.688565 0.31272
688 1 0.371291 0.686944 0.315046
692 1 0.499138 0.68995 0.314019
696 1 0.623817 0.684884 0.313716
700 1 0.750239 0.692381 0.313736
704 1 0.876209 0.685991 0.317585
676 1 1.00051 0.688989 0.312724
707 1 0.0675705 0.757316 0.310214
711 1 0.190077 0.748692 0.309258
715 1 0.317373 0.755423 0.307138
719 1 0.435159 0.753692 0.310647
723 1 0.560628 0.75099 0.313132
727 1 0.686232 0.757316 0.315656
731 1 0.811264 0.753202 0.313415
735 1 0.93361 0.750347 0.311622
708 1 0.999923 0.810769 0.311358
712 1 0.126704 0.814538 0.309703
716 1 0.255803 0.814578 0.309928
720 1 0.378376 0.818447 0.30796
724 1 0.501189 0.811337 0.309079
728 1 0.620495 0.811492 0.312565
732 1 0.750884 0.816 0.309592
736 1 0.872244 0.813907 0.310021
739 1 0.0646634 0.878345 0.310848
743 1 0.193294 0.871527 0.313433
747 1 0.314853 0.874908 0.312212
751 1 0.438132 0.880343 0.3093
755 1 0.565024 0.870305 0.315619
759 1 0.682932 0.872293 0.315719
763 1 0.810678 0.87876 0.311337
767 1 0.934333 0.875814 0.312801
744 1 0.120845 0.938362 0.312103
748 1 0.254162 0.937346 0.310214
752 1 0.379535 0.941893 0.312084
756 1 0.501771 0.938274 0.312814
760 1 0.628738 0.937056 0.312706
764 1 0.745411 0.937408 0.31568
768 1 0.874484 0.937668 0.307518
740 1 0.000121857 0.935209 0.306967
515 1 0.0580345 0.00306313 0.311562
527 1 0.435784 0.00081065 0.313601
531 1 0.56351 0.995661 0.309526
535 1 0.68759 0.00266737 0.314483
543 1 0.938181 0.998647 0.313471
773 1 0.123759 0.00139395 0.373597
777 1 0.249297 0.997788 0.371644
782 1 0.437315 0.0622178 0.377163
789 1 0.622737 0.998961 0.377336
798 1 0.935703 0.0620151 0.373971
770 1 0.0613541 0.0641714 0.377754
774 1 0.188201 0.0612646 0.379091
778 1 0.312652 0.0604649 0.379185
786 1 0.561834 0.0606193 0.374475
790 1 0.684981 0.0641219 0.37763
794 1 0.813024 0.0620901 0.373081
801 1 0.000682512 0.128362 0.374835
805 1 0.126714 0.126301 0.377598
809 1 0.250135 0.119368 0.378282
813 1 0.375241 0.123532 0.377385
817 1 0.50067 0.124244 0.37624
821 1 0.622771 0.127484 0.378527
825 1 0.751082 0.128995 0.373664
829 1 0.87589 0.12787 0.375818
802 1 0.0641838 0.181599 0.376569
806 1 0.189357 0.185801 0.376242
810 1 0.311186 0.190304 0.371446
814 1 0.438382 0.187928 0.372192
818 1 0.560177 0.192579 0.374539
822 1 0.68659 0.186731 0.378807
826 1 0.818085 0.186222 0.372508
830 1 0.939238 0.187473 0.373676
833 1 0.996063 0.250762 0.377189
837 1 0.129218 0.251554 0.375866
841 1 0.247186 0.247452 0.377065
845 1 0.371515 0.248527 0.370155
849 1 0.498318 0.248483 0.372281
853 1 0.625835 0.249968 0.37882
857 1 0.748988 0.247866 0.374059
861 1 0.875252 0.249032 0.375542
834 1 0.062878 0.309719 0.377427
838 1 0.188476 0.313865 0.375195
842 1 0.310232 0.309575 0.376171
846 1 0.436154 0.31594 0.374092
850 1 0.55883 0.309784 0.377953
854 1 0.686944 0.310594 0.376489
858 1 0.812718 0.313371 0.374464
862 1 0.935839 0.308183 0.377777
869 1 0.122515 0.371724 0.371815
873 1 0.249487 0.373347 0.380371
877 1 0.375775 0.372328 0.375954
881 1 0.499164 0.376661 0.375408
885 1 0.623562 0.374923 0.371586
889 1 0.751878 0.374877 0.373966
893 1 0.872714 0.374808 0.379595
865 1 0.00098006 0.373662 0.3798
866 1 0.0620311 0.437556 0.375951
870 1 0.1895 0.443568 0.376107
874 1 0.3131 0.43587 0.380663
878 1 0.43602 0.444761 0.378176
882 1 0.560501 0.439792 0.374039
886 1 0.688729 0.434091 0.378824
890 1 0.816227 0.440207 0.375271
894 1 0.936891 0.436219 0.38194
897 1 0.997857 0.499578 0.375913
901 1 0.125542 0.502269 0.381655
905 1 0.251237 0.501177 0.375281
909 1 0.373057 0.499945 0.377127
913 1 0.500254 0.504937 0.375944
917 1 0.625503 0.50314 0.374505
921 1 0.749149 0.500544 0.375892
925 1 0.878297 0.499407 0.376908
898 1 0.0593462 0.56072 0.372637
902 1 0.189113 0.563818 0.374644
906 1 0.314945 0.565628 0.379223
910 1 0.435793 0.56215 0.373168
914 1 0.562942 0.564381 0.372279
918 1 0.685954 0.564173 0.374165
922 1 0.810601 0.559325 0.376679
926 1 0.939597 0.561861 0.373371
929 1 -0.0011287 0.623832 0.374607
933 1 0.124601 0.622521 0.372569
937 1 0.250279 0.627841 0.374368
941 1 0.371505 0.630313 0.375974
945 1 0.495676 0.625562 0.374131
949 1 0.623403 0.621063 0.374839
953 1 0.748607 0.627157 0.370733
957 1 0.87479 0.6221 0.377292
930 1 0.0602343 0.688296 0.373959
934 1 0.185729 0.687713 0.374191
938 1 0.31076 0.691273 0.377662
942 1 0.4356 0.687713 0.374536
946 1 0.559206 0.68761 0.376063
950 1 0.682925 0.689994 0.372692
954 1 0.809859 0.690246 0.375925
958 1 0.933951 0.686658 0.378072
961 1 -8.67946e-05 0.74853 0.375972
965 1 0.125526 0.754816 0.376076
969 1 0.252545 0.750536 0.368538
973 1 0.375125 0.749595 0.372864
977 1 0.500972 0.748658 0.374066
981 1 0.625191 0.750231 0.377346
985 1 0.747719 0.750804 0.377543
989 1 0.874994 0.752491 0.373363
962 1 0.0613547 0.813255 0.37361
966 1 0.192413 0.810494 0.373939
970 1 0.316643 0.813375 0.37613
974 1 0.440041 0.814187 0.370231
978 1 0.559168 0.81209 0.375872
982 1 0.691114 0.811489 0.378386
986 1 0.814558 0.815466 0.374128
990 1 0.934501 0.810004 0.371192
997 1 0.123203 0.875874 0.376293
1001 1 0.251876 0.877144 0.373116
1005 1 0.374543 0.877728 0.376543
1009 1 0.498465 0.87635 0.372299
1013 1 0.62661 0.876731 0.377857
1017 1 0.747624 0.874414 0.374738
1021 1 0.876997 0.873078 0.372958
993 1 0.998607 0.87601 0.373607
994 1 0.0628161 0.939663 0.371673
998 1 0.183204 0.937307 0.371334
1002 1 0.314373 0.93853 0.369891
1006 1 0.437672 0.936688 0.376575
1010 1 0.565216 0.936386 0.374273
1014 1 0.685854 0.939429 0.378129
1018 1 0.812963 0.936078 0.372024
1022 1 0.939911 0.9372 0.369565
781 1 0.375779 0.00166908 0.376719
785 1 0.495455 0.998603 0.373809
793 1 0.750955 0.998751 0.373225
797 1 0.874409 0.99707 0.37153
769 1 0.00219429 0.0013572 0.376045
771 1 0.0628778 0.00128874 0.442636
783 1 0.435629 0.998585 0.43817
787 1 0.556881 0.00100299 0.438913
792 1 0.624813 0.0607042 0.438718
791 1 0.689728 0.998485 0.438355
795 1 0.813477 0.997311 0.430969
776 1 0.127764 0.0631782 0.437349
780 1 0.249934 0.0572244 0.438675
784 1 0.378855 0.064011 0.438844
788 1 0.494715 0.063725 0.440167
796 1 0.750576 0.0631231 0.436463
800 1 0.87317 0.0618239 0.435877
772 1 0.00102108 0.0635586 0.43576
803 1 0.0641461 0.126117 0.440566
807 1 0.189409 0.12143 0.441264
811 1 0.310325 0.123432 0.439734
815 1 0.439795 0.128521 0.43513
819 1 0.560294 0.120579 0.436684
823 1 0.687512 0.124997 0.437029
827 1 0.811819 0.125928 0.435821
831 1 0.938399 0.124113 0.435829
804 1 0.00441055 0.190038 0.438745
808 1 0.129886 0.187111 0.440094
812 1 0.249899 0.184218 0.437095
816 1 0.372721 0.188239 0.437099
820 1 0.501839 0.188154 0.43895
824 1 0.628327 0.189408 0.440726
828 1 0.754382 0.188262 0.436472
832 1 0.879399 0.190653 0.438236
835 1 0.0662766 0.247017 0.435432
839 1 0.187979 0.24969 0.436296
843 1 0.312186 0.250868 0.440782
847 1 0.437492 0.245597 0.436157
851 1 0.565647 0.250196 0.441412
855 1 0.689912 0.248891 0.436756
859 1 0.814449 0.250399 0.437156
863 1 0.937525 0.249661 0.438042
840 1 0.128537 0.31327 0.438649
844 1 0.246262 0.309907 0.437149
848 1 0.3765 0.31199 0.434404
852 1 0.49936 0.312543 0.435234
856 1 0.624352 0.316629 0.434269
860 1 0.754726 0.313065 0.436058
864 1 0.872235 0.315499 0.441242
836 1 0.000910897 0.307403 0.440031
867 1 0.0658918 0.375104 0.437457
871 1 0.185117 0.379252 0.438399
875 1 0.30961 0.369226 0.439172
879 1 0.437198 0.378573 0.436232
883 1 0.559135 0.376025 0.439428
887 1 0.685107 0.375314 0.43429
891 1 0.810615 0.375523 0.440283
895 1 0.938063 0.372785 0.442
872 1 0.123863 0.436505 0.436459
876 1 0.249785 0.435575 0.440782
880 1 0.376187 0.442261 0.437004
884 1 0.493593 0.438536 0.440189
888 1 0.622282 0.438468 0.433853
892 1 0.746008 0.437274 0.436561
896 1 0.873811 0.435662 0.440295
868 1 0.00127148 0.434073 0.441188
899 1 0.0609058 0.4945 0.437076
903 1 0.188077 0.504567 0.44085
907 1 0.310894 0.501435 0.438211
911 1 0.436351 0.500905 0.439967
915 1 0.562968 0.499902 0.435569
919 1 0.68311 0.504909 0.440201
923 1 0.812811 0.499468 0.437588
927 1 0.936389 0.499209 0.440402
904 1 0.122237 0.56439 0.440798
908 1 0.249373 0.565205 0.438882
912 1 0.377071 0.562333 0.444735
916 1 0.496016 0.565103 0.434411