ITEM: TIMESTEP
100000
ITEM: NUMBER OF ATOMS
2048
ITEM: BOX BOUNDS pp pp pp
0.0000000000000000e+00 1.3153131063095840e+01
0.0000000000000000e+00 1.3153131063095840e+01
0.0000000000000000e+00 1.3153131063095840e+01
ITEM: ATOMS id type xs ys zs
427 1 0.0346702 0.969803 0.955843
1866 1 0.215813 0.0246013 0.960317
981 1 0.243234 0.087929 0.0245239
1051 1 0.537663 0.0421215 0.0626695
1239 1 0.55999 0.0156822 0.989323
1302 1 0.637524 0.989996 0.989024
1060 1 0.815793 0.0582585 0.0557088
319 1 0.941412 0.966527 0.0102191
821 1 0.138215 0.103046 0.957521
1562 1 0.31426 0.113301 0.998189
1048 1 0.474133 0.00397726 0.0277351
780 1 0.952185 0.0386231 0.0574298
1082 1 0.00311286 0.085021 0.111087
1328 1 6.20843e-05 0.028939 0.00555373
121 1 0.306525 0.152976 0.936219
1047 1 0.355126 0.163715 0.0572003
1820 1 0.410725 0.0852525 0.986126
1490 1 0.470733 0.0803321 0.0307183
1204 1 0.991583 0.0834832 0.956296
758 1 0.184044 0.153278 0.000712033
1950 1 0.720148 0.160116 0.946719
1857 1 0.910983 0.160599 0.13066
209 1 0.95265 0.110918 0.0391863
1678 1 0.0493797 0.223239 0.948169
336 1 0.38822 0.24245 0.0597218
1721 1 0.45821 0.254935 0.0590582
350 1 0.55982 0.314755 0.0136457
1321 1 0.761602 0.206883 0.091265
473 1 0.987131 0.177371 0.983752
1197 1 0.19632 0.230602 0.015367
563 1 0.815024 0.276873 0.00844345
1499 1 0.111024 0.284896 0.0133759
1015 1 0.253911 0.263566 0.976455
1325 1 0.441851 0.365521 0.075296
518 1 0.0192063 0.267984 0.996381
466 1 0.196269 0.362058 0.995001
1467 1 0.288384 0.438956 0.0122411
1437 1 0.646804 0.299332 0.00194829
1039 1 0.671337 0.270078 0.938469
927 1 0.889548 0.355414 0.00850941
1994 1 0.917178 0.473634 0.0377462
407 1 0.0283141 0.402171 0.033061
471 1 0.403033 0.45928 0.00304613
831 1 0.545768 0.405301 0.00224749
1927 1 0.664848 0.394929 0.0406406
953 1 0.679385 0.380475 0.933126
5 1 0.170574 0.544099 0.0827256
823 1 0.277158 0.519364 0.0603538
1980 1 0.67432 0.45387 0.083258
1921 1 0.749196 0.404049 0.011837
1605 1 0.102056 0.498593 0.0342208
712 1 0.151612 0.515698 0.984825
560 1 0.325518 0.581288 0.0532477
1138 1 0.610875 0.52917 0.0353418
335 1 0.974219 0.601093 0.0990976
1348 1 0.262905 0.599899 0.924059
620 1 0.476777 0.542648 0.0775524
1134 1 0.659098 0.576236 0.0680107
785 1 0.92373 0.613372 0.957844
693 1 0.143701 0.617741 0.0208448
358 1 0.0895224 0.571434 0.996324
920 1 0.293689 0.6484 0.0737786
1363 1 0.441045 0.622383 0.0668935
1243 1 0.552215 0.587989 0.0203908
1119 1 0.753764 0.495027 0.0414445
492 1 0.186906 0.649313 0.94645
1289 1 0.25405 0.680662 0.998948
1383 1 0.590046 0.561426 0.0981651
658 1 0.808641 0.722224 0.0385511
356 1 0.0661602 0.686021 0.0366491
278 1 0.524993 0.720229 0.0675479
886 1 0.590191 0.668845 0.152511
568 1 0.57418 0.727483 0.0084999
1350 1 0.767955 0.784577 0.0827384
315 1 0.0641771 0.809504 0.0440349
1793 1 0.123484 0.743352 0.046581
1779 1 0.341693 0.720978 0.00914179
1054 1 0.767747 0.769118 0.986402
1418 1 0.00323281 0.701618 0.0020142
412 1 0.0392258 0.88022 0.0627652
911 1 0.139786 0.822801 0.0570628
1868 1 0.261128 0.764721 0.997403
2034 1 0.409335 0.754728 0.0249883
1968 1 0.481288 0.779176 0.976874
1747 1 0.540867 0.787882 0.0242117
1716 1 0.555858 0.864485 0.969875
1104 1 0.784391 0.862406 0.0792411
697 1 0.114897 0.892147 0.0714745
128 1 0.206093 0.864618 0.0540558
1732 1 0.422619 0.835699 -0.00100925
90 1 0.611316 0.870841 0.900843
1911 1 0.579211 0.921645 0.00580806
1110 1 0.676667 0.934623 0.0309253
616 1 0.859589 0.849953 0.0626823
1389 1 0.947081 0.871996 0.0409478
937 1 0.200108 0.912924 0.97131
1593 1 0.802142 0.936352 0.0411756
1392 1 0.328847 0.0214591 0.0854808
688 1 0.681783 0.0429054 0.101252
155 1 0.862341 0.987769 0.0504004
965 1 0.0406189 0.0221811 0.110643
2002 1 0.0735616 0.0122517 0.0316386
1017 1 0.161282 0.0421756 0.0105329
1563 1 0.258881 0.0234032 0.0541561
199 1 0.510466 0.972906 0.0896479
1973 1 0.744943 0.0741631 0.0806732
1182 1 0.861526 0.924158 0.0967117
1549 1 0.402742 0.0380927 0.0482328
1502 1 0.623678 0.11272 0.0638368
1602 1 0.756327 0.0885261 0.994789
1736 1 0.0867291 0.0839927 0.0344537
1253 1 0.15807 0.102874 0.0553389
1811 1 0.497606 0.182204 0.0738177
1103 1 0.60976 0.0600712 0.949509
457 1 0.72722 0.158391 0.0417486
1839 1 0.886448 0.0603835 0.0926628
677 1 0.945317 0.0332491 0.139948
325 1 0.0378812 0.141377 0.0475816
1618 1 0.23148 0.148046 0.06179
1634 1 0.23415 0.28144 0.0602124
1028 1 0.423011 0.190392 0.141226
1362 1 0.566223 0.173485 0.0457155
536 1 0.664951 0.113806 0.99377
932 1 0.978879 0.15826 0.0870745
1440 1 0.240234 0.20891 0.0969333
1543 1 0.794402 0.115361 0.12516
718 1 0.850439 0.207253 0.0555814
87 1 0.0607615 0.218088 0.0305572
1173 1 0.168452 0.300497 0.96812
1919 1 0.324842 0.287883 0.113194
385 1 0.486899 0.31917 0.0317841
1424 1 0.418236 0.268327 0.134518
1317 1 0.542258 0.308706 0.163541
584 1 0.59044 0.371067 0.0531762
1207 1 0.60349 0.248538 0.0551973
1859 1 0.743625 0.302143 0.0591371
1843 1 0.871417 0.299195 0.0573559
1126 1 0.950344 0.227011 0.118849
1468 1 0.259103 0.354082 0.0395751
1229 1 0.380612 0.347774 0.115201
1070 1 0.526781 0.298611 0.0896444
1523 1 0.775361 0.237335 0.158399
332 1 0.977552 0.326575 0.0535122
647 1 0.117618 0.353886 0.985419
1892 1 0.332499 0.389924 0.0530449
636 1 0.449069 0.34641 0.972101
159 1 0.950167 0.411962 0.00373631
799 1 0.160049 0.445975 0.148194
991 1 0.20814 0.466808 0.085043
1819 1 0.299239 0.363486 0.121035
1727 1 0.663546 0.372388 0.126178
1912 1 0.735832 0.400888 0.0859954
1346 1 0.805855 0.28534 0.106498
191 1 0.0599364 0.486335 0.0968023
1954 1 0.371953 0.500051 0.0510841
1557 1 0.489482 0.466883 0.00974814
1458 1 0.599726 0.428354 0.114155
1301 1 0.866454 0.525718 0.0375693
1700 1 0.870428 0.407636 0.063949
401 1 0.220197 0.607239 0.00913502
926 1 0.248705 0.59563 0.077131
978 1 0.540855 0.49884 0.0702868
632 1 0.578934 0.498803 0.139014
838 1 0.0360465 0.575463 0.0619601
74 1 0.250266 0.547592 0.140637
132 1 0.564195 0.585774 0.163394
1917 1 0.788621 0.624247 0.169899
1978 1 0.775723 0.47468 0.127113
1861 1 0.801272 0.650711 0.0915951
1268 1 0.951207 0.551255 0.0357264
1608 1 0.0794688 0.625937 0.0952009
114 1 0.189321 0.636169 0.0819726
1957 1 0.518106 0.633494 0.0826105
1704 1 0.738205 0.601924 0.10116
85 1 0.180295 0.684775 0.0242648
1800 1 0.258931 0.654132 0.143273
661 1 0.379361 0.637048 0.993554
1676 1 0.636621 0.64457 0.0887879
1450 1 0.881099 0.690357 0.0543946
284 1 0.890866 0.600005 0.0383147
569 1 0.0435952 0.741276 0.0856096
519 1 0.598918 0.726287 0.102448
1895 1 0.674529 0.845945 0.160581
167 1 0.720542 0.667497 0.0690994
880 1 0.453589 0.694535 0.0536885
826 1 0.528521 0.792536 0.100178
1925 1 0.835269 0.748901 0.111295
796 1 0.913857 0.800412 0.0733874
1376 1 0.0688402 0.952478 0.0942926
651 1 0.228944 0.946186 0.101144
9 1 0.382322 0.95711 0.0641161
1969 1 0.468491 0.801971 0.0546069
727 1 0.490291 0.85968 0.014143
523 1 0.627577 0.864647 0.00727178
642 1 0.775314 0.916123 0.131016
1185 1 0.993164 0.914958 0.00145252
301 1 0.149096 0.974736 0.0330339
524 1 0.429099 0.956744 0.115952
465 1 0.434376 0.875384 0.0980475
447 1 0.617014 0.962426 0.0754704
251 1 0.904013 0.848607 0.130057
1033 1 0.115298 0.045543 0.0974762
733 1 0.568758 0.908393 0.103183
1623 1 0.506704 0.92882 0.0128254
527 1 0.0932959 0.128054 0.116634
934 1 0.310418 0.0729284 0.174864
1133 1 0.453431 0.0259071 0.136366
157 1 0.609279 0.0305616 0.115426
234 1 0.933182 0.974266 0.211172
1076 1 0.995363 0.981957 0.154093
255 1 0.219635 0.0617409 0.186582
946 1 0.294261 0.0875185 0.0838963
793 1 0.688157 0.175673 0.101849
1265 1 0.726789 0.0218286 0.155508
172 1 0.805698 0.0662103 0.186641
204 1 0.933193 0.0844819 0.18784
1326 1 0.976039 0.143374 0.161855
1155 1 0.424146 0.0974823 0.0797434
342 1 0.859566 0.105367 0.151954
1340 1 0.288372 0.180658 0.023095
1952 1 0.870061 0.161861 0.203644
1206 1 0.0434303 0.200559 0.104789
1334 1 0.232497 0.280494 0.137258
1850 1 0.326019 0.202523 0.130479
38 1 0.574744 0.151931 0.111745
414 1 0.546283 0.228031 0.0986535
331 1 0.699903 0.235317 0.154174
1628 1 0.839786 0.207611 0.13103
1238 1 0.13802 0.305569 0.11435
1159 1 0.255697 0.325281 0.205277
989 1 0.565153 0.243007 0.167636
1377 1 0.89034 0.275287 0.125819
119 1 0.0323377 0.271135 0.0741889
1723 1 0.107536 0.241952 0.0852189
1123 1 0.453634 0.336996 0.145968
230 1 0.569229 0.358548 0.119813
1935 1 0.620006 0.310782 0.0883966
298 1 0.685521 0.302202 0.1229
1151 1 0.955793 0.25807 0.0496675
949 1 0.186834 0.35045 0.0700667
1869 1 0.221881 0.393274 0.201231
1901 1 0.929175 0.37158 0.0936445
1682 1 0.0835507 0.357388 0.07027
1446 1 0.420194 0.441351 0.165193
1184 1 0.439969 0.456335 0.0725232
737 1 0.506212 0.415027 0.0962884
846 1 0.749892 0.340642 0.137654
58 1 0.925596 0.447044 0.105106
1547 1 0.00290501 0.413691 0.0988405
547 1 0.122871 0.504213 0.232551
168 1 0.200826 0.471481 0.223014
445 1 0.400749 0.587393 0.174044
1135 1 0.498694 0.39134 0.167072
1385 1 0.666487 0.464179 0.161731
1918 1 0.802517 0.354865 0.0855757
1698 1 0.971091 0.506103 0.0969723
1510 1 0.102094 0.488353 0.166287
1737 1 0.177087 0.519458 0.150975
2011 1 0.286055 0.460457 0.103005
151 1 0.6935 0.521252 0.105117
299 1 0.903152 0.566497 0.110837
212 1 0.947495 0.48099 0.184164
913 1 0.197057 0.623603 0.157267
1165 1 0.386729 0.574516 0.0905471
1709 1 0.486767 0.484152 0.125756
1072 1 0.616464 0.572553 0.212975
259 1 0.0925163 0.55311 0.111016
1074 1 0.334768 0.695658 0.145989
746 1 0.309707 0.5929 0.130634
125 1 0.539992 0.740586 0.154139
1794 1 0.70718 0.659712 0.144487
1796 1 0.859091 0.653919 0.222367
1660 1 0.927336 0.655856 0.104942
970 1 0.998854 0.683057 0.107663
812 1 0.146002 0.687806 0.133173
1284 1 0.377315 0.687857 0.0807021
494 1 0.836379 0.690102 0.158253
1894 1 0.912854 0.696723 0.16771
1322 1 0.203776 0.708227 0.0922662
1840 1 0.331208 0.769164 0.101199
140 1 0.449304 0.787017 0.130191
1856 1 0.484454 0.697617 0.138849
1283 1 0.608893 0.76786 0.180619
252 1 0.960095 0.722097 0.0591367
294 1 0.275402 0.723834 0.0552134
1785 1 0.283856 0.815734 0.0589338
72 1 0.657948 0.805196 0.0937687
343 1 0.716485 0.879566 0.101536
1235 1 0.883447 0.770172 0.164234
570 1 0.9879 0.790565 0.0686614
731 1 -0.000298499 0.842243 0.119285
566 1 0.359451 0.882975 0.0756342
1370 1 0.498218 0.855287 0.132124
853 1 0.634203 0.77787 0.0322095
307 1 0.832966 0.829925 0.130033
440 1 0.122141 0.985527 0.138575
1583 1 0.277194 0.889984 0.0562849
1032 1 0.694001 0.838601 0.0348925
1851 1 0.198517 0.0408516 0.0988288
805 1 0.317107 0.962636 0.0232851
1466 1 0.406243 0.860943 0.172595
993 1 0.58914 0.919011 0.191043
545 1 0.696021 0.0544547 0.0302408
1900 1 0.816985 0.00542227 0.130361
1124 1 0.971973 0.911438 0.117676
1145 1 0.00610496 0.97828 0.0574583
1783 1 0.14004 0.0728306 0.164164
1427 1 0.358063 0.986474 0.154424
4 1 0.648439 0.0346599 0.177666
1026 1 0.911044 0.916977 0.167048
786 1 0.350775 0.130254 0.130196
662 1 0.652625 0.0353913 0.252661
459 1 0.791363 0.985922 0.196985
1761 1 0.184082 0.124512 0.129291
398 1 0.372268 0.0568833 0.136778
1663 1 0.52355 0.0422189 0.239049
52 1 0.831418 0.108085 0.245598
268 1 0.50073 0.112953 0.0914561
241 1 0.645191 0.111628 0.140423
1223 1 0.723325 0.119228 0.138646
161 1 0.966533 0.11862 0.244276
1758 1 0.129178 0.173847 0.0516287
948 1 0.260963 0.142376 0.136319
1293 1 0.647126 0.191356 0.0389719
472 1 0.63388 0.215379 0.133103
1086 1 0.795466 0.169917 0.179271
977 1 0.178351 0.208134 0.1445
910 1 0.522998 0.186658 0.162148
109 1 0.619574 0.160949 0.212248
1521 1 0.940403 0.206229 0.215055
1641 1 0.0505072 0.277829 0.145262
189 1 0.188597 0.334938 0.171489
1164 1 0.304247 0.244688 0.25936
715 1 0.358066 0.251885 0.184358
433 1 0.492997 0.25778 0.142989
995 1 0.682947 0.25003 0.0688747
1406 1 0.752125 0.304309 0.202047
929 1 0.928214 0.34848 0.162277
92 1 0.816858 0.339057 0.181855
1599 1 0.00782638 0.348697 0.148885
2027 1 0.136452 0.381947 0.115479
1662 1 0.228228 0.393016 0.117112
1644 1 0.336267 0.338706 0.243529
1802 1 0.377909 0.369534 0.192759
232 1 0.47427 0.332797 0.221999
1659 1 0.724922 0.392722 0.185587
1024 1 0.964366 0.412642 0.168207
333 1 0.306516 0.404246 0.184596
1476 1 0.415025 0.514179 0.125507
351 1 0.571113 0.413125 0.19258
1266 1 0.620297 0.306704 0.170873
521 1 0.0121238 0.51492 0.168827
1873 1 0.0498477 0.456831 0.215247
825 1 0.19764 0.544456 0.228576
1099 1 0.234168 0.45471 0.159045
1530 1 0.360841 0.479496 0.186642
691 1 0.775396 0.54505 0.147121
1021 1 0.866283 0.343033 0.120345
1277 1 0.0970368 0.567707 0.181378
654 1 0.339778 0.514992 0.121333
869 1 0.469823 0.563237 0.160551
1643 1 0.722829 0.510525 0.180024
589 1 0.841546 0.550502 0.19977
1132 1 0.844379 0.516572 0.132494
1580 1 0.946787 0.561427 0.173438
854 1 0.649075 0.575925 0.143364
265 1 0.870152 0.624015 0.153122
1019 1 0.971895 0.632652 0.169554
689 1 0.0302248 0.594132 0.151858
2047 1 0.121414 0.632161 0.196337
363 1 0.426862 0.652122 0.145676
696 1 0.509606 0.637384 0.171224
811 1 0.770613 0.630573 0.25686
1093 1 0.942961 0.662896 0.232888
240 1 0.0622602 0.709589 0.155912
1625 1 0.209533 0.692786 0.188795
1904 1 0.387098 0.814432 0.0751607
1982 1 0.442402 0.66882 0.213977
986 1 0.552603 0.639295 0.231649
1397 1 0.963129 0.744256 0.139603
807 1 0.125159 0.710922 0.199893
1680 1 0.317542 0.767458 0.184228
1757 1 0.686105 0.733931 0.134899
444 1 0.766618 0.715428 0.106153
53 1 0.973591 0.765614 0.243571
866 1 0.131313 0.759577 0.125012
205 1 0.259174 0.733718 0.143996
245 1 0.257929 0.867558 0.121526
738 1 0.546539 0.787142 0.211097
699 1 0.0113962 0.895468 0.173816
1799 1 0.0844834 0.832422 0.110247
93 1 0.641443 0.881879 0.0838595
487 1 0.75457 0.917399 0.201484
56 1 0.162466 0.859344 0.123659
422 1 0.172836 0.917742 0.172031
564 1 0.601495 0.840003 0.158413
1905 1 0.642275 0.858396 0.270203
1098 1 0.700364 0.947793 0.118409
225 1 0.960456 0.904262 0.229032
320 1 0.0156971 0.97638 0.229988
982 1 0.0728056 0.0206488 0.230756
1735 1 0.324039 0.929041 0.118097
1633 1 0.552273 0.995033 0.160738
877 1 0.560741 0.853657 0.0578561
1005 1 0.758235 0.993499 0.0516708
875 1 0.881327 0.0385137 0.214776
470 1 0.00320785 0.046969 0.211676
1200 1 0.207711 0.0760211 0.268808
1402 1 0.276641 0.0994447 0.243083
1115 1 0.619374 0.0567212 0.311389
1423 1 0.713273 0.982581 0.225833
1288 1 0.0488505 0.0977763 0.291162
49 1 0.0468289 0.119721 0.208301
55 1 0.732523 0.0521205 0.229315
1425 1 0.969928 0.176242 0.301342
1837 1 0.225228 0.138393 0.200267
1929 1 0.405123 0.126765 0.193477
1279 1 0.454172 0.0750886 0.230932
1412 1 0.54194 0.0593971 0.309648
1294 1 0.608322 0.0855789 0.215859
400 1 0.683517 0.111225 0.204726
357 1 0.826723 0.199665 0.258549
1849 1 0.905665 0.249408 0.278644
1435 1 0.00734858 0.222612 0.175144
856 1 0.129944 0.148527 0.183513
405 1 0.332071 0.181612 0.204379
1122 1 0.456246 0.108104 0.146399
153 1 0.573622 0.0884872 0.14958
1447 1 0.970284 0.283014 0.162936
943 1 0.103694 0.220989 0.163506
1545 1 0.411858 0.200422 0.222945
1710 1 0.6398 0.238649 0.2009
1853 1 0.683839 0.176968 0.255298
1226 1 0.730455 0.255567 0.257989
1585 1 0.876456 0.236025 0.187066
158 1 0.97563 0.263594 0.245833
1809 1 0.0352615 0.298374 0.215732
98 1 0.189248 0.349045 0.246772
613 1 0.25845 0.365787 0.288934
1225 1 0.421738 0.274231 0.214284
925 1 0.678134 0.30506 0.218382
1068 1 0.790252 0.415052 0.211534
211 1 0.805397 0.271134 0.242155
891 1 0.895039 0.394993 0.209337
195 1 0.0318161 0.374423 0.213085
1150 1 0.0828368 0.338536 0.16642
1936 1 0.558802 0.326713 0.234616
387 1 0.0533631 0.418167 0.146878
1890 1 0.274911 0.433225 0.258255
1847 1 0.332806 0.390005 0.326934
1677 1 0.422435 0.374099 0.25176
162 1 0.515614 0.485147 0.195033
621 1 0.855772 0.455057 0.178301
1431 1 0.417532 0.526673 0.205526
1739 1 0.533728 0.547557 0.241549
1553 1 0.604289 0.456616 0.242955
947 1 0.771358 0.493543 0.22927
778 1 0.98322 0.423338 0.238262
567 1 0.192104 0.643793 0.239741
2038 1 0.482298 0.601832 0.254459
330 1 0.893778 0.463966 0.242429
704 1 0.903335 0.387068 0.345782
200 1 0.108106 0.574642 0.264503
78 1 0.298627 0.692452 0.20786
890 1 0.370186 0.645916 0.220215
565 1 0.678101 0.618561 0.22055
416 1 0.767077 0.564406 0.224336
18 1 0.997469 0.492715 0.262749
334 1 0.037728 0.634488 0.213067
270 1 0.327388 0.690443 0.277587
765 1 0.518037 0.718966 0.323211
605 1 0.612108 0.640383 0.287744
619 1 0.775542 0.698388 0.216983
1848 1 0.90786 0.545106 0.236742
310 1 0.191138 0.749588 0.231853
532 1 0.388875 0.744795 0.144658
1653 1 0.707045 0.676392 0.261495
1415 1 0.905271 0.717481 0.275167
1252 1 0.0805959 0.769156 0.218765
1865 1 0.123044 0.742435 0.282503
1945 1 0.213861 0.796162 0.147132
1488 1 0.377548 0.800441 0.213512
1550 1 0.526733 0.70453 0.216129
709 1 0.646949 0.68756 0.186134
1422 1 0.0287447 0.783768 0.167028
327 1 0.228835 0.869037 0.190721
1451 1 0.222926 0.814094 0.243959
1574 1 0.460511 0.815479 0.195969
923 1 0.565897 0.826247 0.269874
1445 1 0.878037 0.83407 0.204209
1511 1 0.302676 0.855169 0.221165
1815 1 0.324741 0.853649 0.15038
1320 1 0.579843 0.920893 0.273888
553 1 0.697773 0.78441 0.199396
1433 1 0.715307 0.754616 0.2619
1582 1 0.768172 0.765837 0.16848
1460 1 0.950142 0.819961 0.198231
1824 1 0.522015 0.863385 0.215399
1000 1 0.639011 0.966977 0.154492
840 1 0.0328523 0.992906 0.301294
1787 1 0.0925356 0.928393 0.17119
149 1 0.281987 0.999369 0.13801
820 1 0.433929 0.889576 0.238678
550 1 0.501781 0.930373 0.149843
368 1 0.840619 0.894548 0.167418
1307 1 0.0674273 0.0585132 0.165954
123 1 0.14029 0.970445 0.218462
463 1 0.19629 0.995317 0.163511
1305 1 0.281726 0.0194759 0.220909
711 1 0.582568 0.998555 0.252675
131 1 0.64566 0.958003 0.25737
1775 1 0.911822 0.0721493 0.2788
1630 1 0.473184 0.993897 0.357956
789 1 0.688363 0.0949895 0.299937
922 1 0.101689 0.148773 0.304057
1558 1 0.382798 0.0593602 0.225994
12 1 0.575544 0.130097 0.266879
25 1 0.744762 0.143993 0.301278
1810 1 0.818508 0.0403591 0.278405
1518 1 0.967074 0.0904927 0.323376
729 1 0.343396 0.133906 0.261595
222 1 0.427812 0.193667 0.295965
59 1 0.758602 0.119593 0.215301
973 1 0.0473933 0.126539 0.356666
64 1 0.117066 0.141039 0.37835
1985 1 0.622554 0.194533 0.29228
403 1 0.757804 0.190312 0.243162
1862 1 0.820376 0.152249 0.316955
1282 1 0.90388 0.192914 0.35269
1612 1 0.0454225 0.196827 0.30019
1417 1 0.0108012 0.174577 0.24167
836 1 0.199258 0.270478 0.265075
1675 1 0.270046 0.228132 0.177368
409 1 0.504787 0.26612 0.231928
366 1 0.794863 0.251112 0.310226
1382 1 0.349119 0.201269 0.305449
1587 1 0.562671 0.20233 0.247318
1428 1 0.728747 0.336486 0.264722
1570 1 0.878236 0.300338 0.232366
734 1 0.972197 0.325966 0.325911
2031 1 0.152559 0.269666 0.189028
76 1 0.18603 0.169535 0.31878
865 1 0.379294 0.259759 0.275642
1408 1 0.532615 0.23835 0.327164
1926 1 0.618741 0.274595 0.274079
968 1 0.959738 0.346959 0.229323
705 1 0.126645 0.310145 0.28857
397 1 0.207171 0.443714 0.291466
257 1 0.37823 0.336054 0.311513
1532 1 0.555992 0.405046 0.275614
1808 1 0.595553 0.493607 0.304229
1355 1 0.793416 0.324853 0.295302
1517 1 0.0472123 0.426401 0.290016
1227 1 0.145689 0.392653 0.196203
275 1 0.292583 0.466842 0.326979
972 1 0.693279 0.419115 0.244269
1603 1 0.869433 0.358012 0.277548
1827 1 0.295811 0.520547 0.194473
1497 1 0.380304 0.431936 0.104118
1187 1 0.358316 0.490638 0.284417
1664 1 0.527653 0.477822 0.277095
1316 1 0.674152 0.485818 0.272568
633 1 0.937641 0.452807 0.308495
1029 1 0.103513 0.381594 0.267085
1211 1 0.262359 0.615628 0.27147
1544 1 0.50099 0.568133 0.360248
80 1 0.890795 0.5151 0.310985
1963 1 0.0358144 0.573788 0.301158
1494 1 0.262341 0.63882 0.342308
956 1 0.304379 0.598214 0.204186
137 1 0.311099 0.552525 0.289422
1713 1 0.40767 0.720692 0.288764
719 1 0.472515 0.527693 0.282918
1671 1 0.556688 0.595343 0.302432
273 1 0.839138 0.597903 0.264622
530 1 0.829222 0.57962 0.375106
2023 1 0.0500109 0.534189 0.228964
1064 1 0.0270463 0.717445 0.217028
1193 1 0.280176 0.710364 0.330818
1198 1 0.684007 0.626711 0.322071
337 1 0.330809 0.78046 0.28508
1066 1 0.477928 0.755509 0.233278
1380 1 0.422313 0.647902 0.28622
86 1 0.574279 0.746589 0.269197
1696 1 0.0426796 0.653734 0.316994
70 1 0.151107 0.807529 0.265126
1690 1 0.264557 0.742441 0.246442
1010 1 0.389585 0.728 0.219174
783 1 0.480824 0.839222 0.274661
2048 1 0.662195 0.706209 0.315492
828 1 0.700949 0.771494 0.332662
73 1 0.789951 0.695639 0.291144
609 1 0.856727 0.726751 0.217915
1484 1 0.965354 0.69423 0.326315
2036 1 0.993213 0.845203 0.261027
34 1 0.399669 0.800279 0.303984
480 1 0.949289 0.7947 0.320669
2043 1 0.0869514 0.863936 0.22091
1734 1 0.143998 0.814765 0.175606
1410 1 0.365419 0.896116 0.261255
1462 1 0.645317 0.734643 0.250863
1256 1 0.126203 0.859266 0.324221
176 1 0.183755 0.875111 0.269775
500 1 0.359145 0.918693 0.183919
713 1 0.672244 0.919272 0.198506
1665 1 0.757565 0.843323 0.184526
770 1 0.920108 0.854392 0.273382
1970 1 0.0652227 0.895447 0.290191
919 1 0.806382 0.834116 0.246925
184 1 0.961596 0.0018096 0.284288
1190 1 0.0982227 0.0402943 0.310399
256 1 0.272029 0.0248077 0.332096
235 1 0.332923 0.0616351 0.298957
857 1 0.424105 0.994289 0.200423
1528 1 0.490384 0.975147 0.22363
226 1 0.602219 0.998338 0.359734
1120 1 0.794017 0.918638 0.259833
23 1 0.209632 0.0618204 0.354183
985 1 0.378833 4.6651e-05 0.338135
1923 1 0.78046 0.9831 0.302502
2033 1 0.884745 0.00917348 0.299983
1886 1 0.929002 0.901466 0.35966
952 1 0.255445 0.123647 0.312726
1274 1 0.327385 0.135362 0.36197
1522 1 0.430004 0.0402449 0.298596
1002 1 0.628911 0.0903855 0.378403
1714 1 0.767461 0.0890184 0.339066
313 1 0.962252 0.132995 0.383144
375 1 0.976157 0.977653 0.356976
1214 1 0.159203 0.134346 0.256531
1845 1 0.529517 0.123875 0.211139
1216 1 0.656145 0.142808 0.425184
1474 1 0.893215 0.153146 0.273988
1485 1 0.0816711 0.0961979 0.422484
1548 1 0.193732 0.214644 0.214484
1309 1 0.258125 0.191557 0.263869
467 1 0.411276 0.159213 0.371565
2010 1 0.026597 0.180626 0.414664
460 1 0.0855812 0.225114 0.365967
282 1 0.0697997 0.232226 0.236412
639 1 0.300652 0.233297 0.35187
1061 1 0.466951 0.143694 0.256999
645 1 0.566876 0.170546 0.329795
543 1 0.686907 0.234082 0.322077
1597 1 0.844772 0.231694 0.381833
964 1 0.030556 0.274128 0.295936
767 1 0.159954 0.246582 0.325021
962 1 0.454308 0.258688 0.281945
1943 1 0.74026 0.191692 0.353104
323 1 0.924756 0.266614 0.361945
653 1 0.212854 0.307719 0.327783
690 1 0.382467 0.235784 0.375584
1577 1 0.591789 0.336491 0.310609
931 1 0.630436 0.363072 0.255183
1864 1 0.707063 0.376319 0.327697
1724 1 0.769819 0.340504 0.370445
1584 1 0.95874 0.324255 0.404214
1807 1 0.122458 0.337216 0.354805
1826 1 0.498736 0.347559 0.293184
624 1 0.672915 0.441497 0.357704
1516 1 0.781061 0.399682 0.3005
1924 1 0.13644 0.457312 0.291196
1725 1 0.308928 0.30644 0.306578
54 1 0.42403 0.3773 0.367349
1876 1 0.842373 0.443999 0.292058
1995 1 0.83175 0.373615 0.346315
818 1 0.246238 0.5105 0.27452
1835 1 0.4197 0.446681 0.291055
1946 1 0.479548 0.425662 0.250042
15 1 0.755734 0.492285 0.320045
1025 1 0.00455658 0.472061 0.345483
1378 1 0.0704007 0.510241 0.326483
554 1 0.280943 0.566823 0.358046
96 1 0.429688 0.555575 0.348967
939 1 0.640123 0.559513 0.296807
1526 1 0.0220005 0.556019 0.377031
1897 1 0.197977 0.612339 0.36757
1780 1 0.234352 0.503022 0.351119
1932 1 0.413589 0.57556 0.271816
477 1 0.422082 0.699257 0.382773
1940 1 0.922837 0.614254 0.284196
1202 1 0.982817 0.599604 0.240896
593 1 0.965354 0.546738 0.292718
47 1 0.0283188 0.721958 0.298361
203 1 0.299983 0.730894 0.40597
37 1 0.815221 0.657457 0.377235
1533 1 0.174253 0.741428 0.342499
1555 1 0.464159 0.774934 0.364666
1012 1 0.86455 0.663277 0.300698
1332 1 0.850476 0.745339 0.358974
2032 1 0.308026 0.871219 0.306062
1391 1 0.540978 0.866002 0.326125
1651 1 0.61878 0.793033 0.313712
139 1 0.818213 0.808521 0.332182
747 1 0.822856 0.762623 0.271969
1594 1 0.0138889 0.773414 0.350453
1469 1 0.0621084 0.818701 0.275281
253 1 0.236465 0.86069 0.323366
1887 1 0.263289 0.788586 0.320797
790 1 0.347901 0.782875 0.352351
1264 1 0.736778 0.818875 0.372992
481 1 0.963166 0.72753 0.387983
417 1 0.508762 0.915523 0.271706
420 1 0.63204 0.924734 0.33434
79 1 0.85265 0.877492 0.287526
1096 1 0.906266 0.939042 0.275893
1707 1 0.0371226 0.870094 0.357932
231 1 0.109725 0.958761 0.296063
2017 1 0.210979 0.985745 0.263504
750 1 0.270899 0.933107 0.200856
1373 1 0.358865 0.97235 0.246882
285 1 0.513228 0.992585 0.291287
732 1 0.811357 0.923006 0.337202
572 1 0.858666 0.965082 0.219126
960 1 0.991727 0.919603 0.29773
1960 1 0.206182 0.972819 0.358176
277 1 0.428515 0.950232 0.278586
915 1 0.716567 0.939126 0.293314
1804 1 0.162632 0.0186367 0.301839
1116 1 0.32368 0.0576843 0.373702
687 1 0.407823 0.00679238 0.41293
169 1 0.392007 0.931711 0.389267
1673 1 0.734717 0.971412 0.355961
587 1 0.80008 0.0228283 0.375035
1085 1 0.907397 0.938021 0.44419
1020 1 0.0487201 0.0330702 0.367232
1498 1 0.27607 0.0868213 0.419842
862 1 0.404457 0.118215 0.295147
1813 1 0.477136 0.0985762 0.311339
889 1 0.631526 0.0871281 0.462357
1153 1 0.892047 0.105012 0.340483
91 1 0.105519 0.0867273 0.238451
1194 1 0.18324 0.113242 0.401692
520 1 0.252172 0.165527 0.372583
354 1 0.760608 0.0943639 0.41323
916 1 0.141674 0.162631 0.453475
870 1 0.0838208 0.281169 0.442252
1396 1 0.169373 0.192832 0.387182
781 1 0.495764 0.169701 0.329433
817 1 0.583115 0.297524 0.373927
1143 1 0.669813 0.145952 0.349771
1101 1 0.677078 0.217813 0.404535
641 1 0.467238 0.23232 0.359348
293 1 0.424925 0.214046 0.428404
1965 1 0.502451 0.285121 0.398521
983 1 0.921688 0.167148 0.439707
1439 1 0.269947 0.299511 0.374475
1063 1 0.332544 0.22748 0.468053
322 1 0.733744 0.266392 0.378411
1364 1 0.857488 0.269523 0.52693
1624 1 0.0430166 0.305908 0.364764
555 1 0.211571 0.32732 0.417103
702 1 0.158471 0.393205 0.316727
630 1 0.656952 0.314876 0.330073
1055 1 0.761944 0.438948 0.371379
1078 1 0.0364057 0.349807 0.294719
2035 1 0.561235 0.40246 0.353132
578 1 0.863347 0.300597 0.327995
1519 1 0.884772 0.387005 0.421893
1942 1 0.998464 0.389133 0.351766
1067 1 0.0239425 0.421862 0.423992
851 1 0.149917 0.442102 0.396218
611 1 0.348705 0.508435 0.359696
1852 1 0.47504 0.426236 0.347275
1465 1 0.626653 0.410961 0.306966
430 1 0.795649 0.445434 0.445225
695 1 0.811747 0.370578 0.445428
1356 1 0.0937418 0.43844 0.350324
655 1 0.100708 0.513241 0.391341
1095 1 0.419329 0.475016 0.35826
324 1 0.67021 0.522309 0.367774
1836 1 0.839259 0.481399 0.356078
1016 1 0.949574 0.422866 0.395939
599 1 0.0322141 0.499586 0.426802
1022 1 0.273832 0.458322 0.407359
843 1 0.453183 0.584419 0.470573
1620 1 0.58353 0.540181 0.383526
24 1 0.644202 0.560893 0.430499
258 1 0.717196 0.552082 0.313798
489 1 0.81514 0.536496 0.307927
1338 1 0.138752 0.645387 0.323381
1541 1 0.49358 0.647745 0.320448
364 1 0.891437 0.55443 0.423833
724 1 0.940558 0.515333 0.37704
428 1 0.103875 0.582274 0.34234
1546 1 0.238974 0.648403 0.473629
514 1 0.351926 0.588659 0.337438
526 1 0.439359 0.62432 0.37082
48 1 0.575009 0.712835 0.369586
1841 1 0.611383 0.613803 0.354342
895 1 0.766552 0.607133 0.325133
1407 1 0.0954702 0.671568 0.252905
852 1 0.367395 0.678831 0.341263
283 1 0.737692 0.666312 0.359989
1860 1 0.983106 0.626763 0.34906
1188 1 0.090352 0.726556 0.34584
595 1 0.152698 0.757234 0.417175
436 1 0.14076 0.677029 0.386717
1903 1 0.187006 0.698021 0.288119
1 1 0.531495 0.789768 0.338412
753 1 0.76505 0.638118 0.442664
685 1 0.27342 0.824113 0.387739
312 1 0.469231 0.850132 0.368434
31 1 0.672762 0.79561 0.430306
1729 1 0.775752 0.750274 0.339682
1586 1 0.492834 0.85876 0.452083
1357 1 0.915909 0.78183 0.39114
638 1 0.0852488 0.795596 0.394065
1360 1 0.288338 0.921913 0.387636
117 1 0.255446 0.93256 0.315114
822 1 0.715171 0.870388 0.239748
2006 1 0.895181 0.837776 0.350849
60 1 0.441039 0.90742 0.334867
1575 1 0.513692 0.927517 0.361887
437 1 0.667204 0.848061 0.350837
393 1 0.859064 0.900339 0.385777
1080 1 0.0480923 0.945655 0.355897
1260 1 0.181489 0.901884 0.350221
1432 1 0.256027 0.996776 0.41472
1111 1 0.450482 0.0705731 0.38226
510 1 0.544632 0.0402512 0.400172
612 1 0.716526 0.0225256 0.296456
646 1 0.0230403 0.979495 0.425445
215 1 0.383671 0.0284554 0.498485
1386 1 0.485421 0.970971 0.434049
1928 1 0.60614 0.0104466 0.437021
383 1 0.780537 0.0260271 0.450164
1688 1 0.887822 0.99074 0.374049
103 1 0.0162597 0.0532804 0.435595
1117 1 0.76032 0.16577 0.43506
1149 1 0.104116 0.0110744 0.462102
722 1 0.157855 0.102081 0.32421
1590 1 0.391147 0.107425 0.418992
506 1 0.551112 0.107934 0.375864
2020 1 0.584499 0.171336 0.466266
217 1 0.697143 0.0591603 0.368204
19 1 0.700962 0.165484 0.477574
784 1 0.822612 0.164199 0.390905
908 1 0.856119 0.0614472 0.392634
1560 1 0.31092 0.181518 0.416595
598 1 0.535358 0.196985 0.392802
164 1 0.223215 0.237873 0.422649
680 1 0.292698 0.171886 0.501505
214 1 0.383921 0.167198 0.470267
771 1 0.621511 0.233974 0.356758
1699 1 0.773757 0.208248 0.509024
847 1 0.0598422 0.19719 0.476996
126 1 0.966439 0.209119 0.383367
16 1 0.143538 0.26366 0.407322
1702 1 0.504547 0.356661 0.377479
768 1 0.501398 0.29218 0.477392
1140 1 0.247903 0.3266 0.483237
1493 1 0.829549 0.303071 0.39191
1878 1 0.90916 0.23735 0.433377
434 1 0.0925247 0.395062 0.412576
594 1 0.352067 0.308212 0.371746
1411 1 0.430144 0.295246 0.34512
976 1 0.623837 0.377147 0.38327
832 1 0.713861 0.481893 0.435031
3 1 0.70047 0.340817 0.395246
1909 1 0.00308346 0.259222 0.454781
1313 1 0.471689 0.387206 0.440853
2008 1 0.51514 0.493066 0.355244
1199 1 0.725661 0.390898 0.447196
628 1 0.878693 0.457413 0.40999
303 1 0.956424 0.376017 0.454571
827 1 0.00834663 0.412704 0.492762
2013 1 0.0804076 0.500219 0.529422
150 1 0.167358 0.536346 0.370317
881 1 0.318141 0.362233 0.40979
1964 1 0.607473 0.469356 0.386313
1855 1 0.765683 0.518316 0.405498
1046 1 0.944792 0.485309 0.443784
1426 1 0.327037 0.548447 0.438739
1259 1 0.801064 0.586534 0.500486
556 1 0.90532 0.585069 0.350908
1537 1 0.986018 0.553886 0.444236
1489 1 0.182489 0.592651 0.296796
1292 1 0.376464 0.613816 0.43478
1576 1 0.397974 0.529767 0.410393
1561 1 0.541627 0.629623 0.392143
1361 1 0.813678 0.52826 0.45804
792 1 0.947843 0.612768 0.465421
1464 1 0.0507766 0.630576 0.393771
1870 1 0.585661 0.674461 0.43375