LAMMPS (15 Sep 2022)
OMP_NUM_THREADS environment is not set. Defaulting to 1 thread. (src/comm.cpp:98)
  using 1 OpenMP thread(s) per MPI task
# 2d WCA system, random initial configuration

#variable density equal 0.5
variable initial_temperature equal 3.0
variable final_temperature equal 0.1
variable dt equal 0.01
variable tau equal 100*${dt}
variable tau equal 100*0.01
variable thermo_time equal 50000*${dt}
variable thermo_time equal 50000*0.01
variable equil_steps equal 50000
variable run_steps equal 100000

units           lj
atom_style      atomic
dimension       2

lattice         sq ${density}
lattice         sq 0.5
Lattice spacing in x,y,z = 1.4142136 1.4142136 1.4142136
region          box block 0 20 0 20 -0.5 0.5
# number of atom types
create_box      1 box
Created orthogonal box = (0 0 -0.70710678) to (28.284271 28.284271 0.70710678)
  4 by 2 by 1 MPI processor grid
create_atoms    1 box
Created 400 atoms
  using lattice units in orthogonal box = (0 0 -0.70710678) to (28.284271 28.284271 0.70710678)
  create_atoms CPU = 0.038 seconds
mass 1 1.0

velocity all create ${initial_temperature} 12345
velocity all create 3 12345

pair_style      lj/cut 1.0
#type_1 type_2 epsilon sigma cutoff
pair_coeff      1 1 10.0 0.89089871814 1.0
pair_modify shift yes

timestep ${dt}
timestep 0.01
thermo ${thermo_time}
thermo 500

fix 1 all nvt temp ${initial_temperature} ${initial_temperature} ${tau}
fix 1 all nvt temp 3 ${initial_temperature} ${tau}
fix 1 all nvt temp 3 3 ${tau}
fix 1 all nvt temp 3 3 1
run ${equil_steps}
run 50000
Generated 0 of 0 mixed pair_coeff terms from geometric mixing rule
Neighbor list info ...
  update: every = 1 steps, delay = 0 steps, check = yes
  max neighbors/atom: 2000, page size: 100000
  master list distance cutoff = 1.3
  ghost atom cutoff = 1.3
  binsize = 0.65, bins = 44 44 3
  1 neighbor lists, perpetual/occasional/extra = 1 0 0
  (1) pair lj/cut, perpetual
      attributes: half, newton on
      pair build: half/bin/atomonly/newton
      stencil: half/bin/2d
      bin: standard
Per MPI rank memory allocation (min/avg/max) = 3.048 | 3.049 | 3.049 Mbytes
   Step          Temp          E_pair         E_mol          TotEng         Press     
         0   3              0              0              2.9925         1.49625      
       500   2.9896         0.18045469     0              3.1625807      3.2367391    
      1000   2.8749559      0.20734266     0              3.0751112      3.5085619    
      1500   2.9231239      0.24774582     0              3.1635619      3.7725781    
      2000   3.0186918      0.19622993     0              3.207375       3.4598898    
      2500   3.0966637      0.24435106     0              3.3332731      3.8413137    
      3000   3.126335       0.2588965      0              3.3774157      4.2042847    
      3500   3.3251825      0.27006565     0              3.5869352      4.1079641    
      4000   2.9435465      0.2229045      0              3.1590921      3.6351851    
      4500   2.9061645      0.2308249      0              3.129724       3.5562454    
      5000   2.8715486      0.24081904     0              3.1051888      3.6272577    
      5500   2.8651857      0.24838143     0              3.1064041      3.7757973    
      6000   2.8949258      0.13968058     0              3.027369       2.9289502    
      6500   2.9330016      0.2289333      0              3.1546024      3.3884063    
      7000   2.8522633      0.13106091     0              2.9761935      2.8378534    
      7500   2.9325456      0.24955337     0              3.1747676      3.7383397    
      8000   2.9168096      0.21859379     0              3.1281113      3.3765445    
      8500   2.9386747      0.25624341     0              3.1875714      3.8174052    
      9000   2.9035399      0.24421035     0              3.1404914      3.5968644    
      9500   3.0731435      0.30753068     0              3.3729913      4.1311978    
     10000   3.0202509      0.27923213     0              3.2919324      3.8999272    
     10500   3.0374767      0.23245694     0              3.26234        3.9910735    
     11000   2.9777409      0.19697954     0              3.1672761      3.3892071    
     11500   2.7270981      0.16129967     0              2.88158        3.1264224    
     12000   2.8408612      0.14754962     0              2.9813087      3.1038612    
     12500   3.0274448      0.19605186     0              3.2159281      3.4429533    
     13000   3.2025697      0.14636872     0              3.340932       3.0641421    
     13500   3.1674848      0.26618464     0              3.4257507      4.0158355    
     14000   3.2845113      0.25817479     0              3.5344748      4.0595481    
     14500   2.9262027      0.21382061     0              3.1327078      3.5299599    
     15000   2.9986588      0.20103252     0              3.1921946      3.535726     
     15500   2.8349776      0.29147445     0              3.1193646      3.9514311    
     16000   2.9739913      0.15671824     0              3.1232746      3.16258      
     16500   2.8936309      0.10545209     0              2.9918489      2.6694121    
     17000   3.0369083      0.17426488     0              3.2035809      3.3870294    
     17500   2.9408606      0.20087597     0              3.1343844      3.4777564    
     18000   2.9188887      0.18743957     0              3.099031       3.4041967    
     18500   3.0341095      0.15190979     0              3.1784341      3.1620452    
     19000   2.9437198      0.21088974     0              3.1472502      3.5106181    
     19500   2.7643607      0.20276274     0              2.9602125      3.355155     
     20000   2.9408316      0.11065429     0              3.0441338      2.7324155    
     20500   2.9395758      0.13527077     0              3.0674976      2.8791045    
     21000   2.9743001      0.14346567     0              3.11033        2.9922795    
     21500   2.8147618      0.2357679      0              3.0434928      3.5158729    
     22000   2.90023        0.19316177     0              3.0861412      3.3208605    
     22500   3.1483436      0.21163797     0              3.3521108      3.6385176    
     23000   3.253118       0.28153721     0              3.5265224      4.0470868    
     23500   3.0351241      0.25604778     0              3.2835841      3.9359717    
     24000   2.9411244      0.22304079     0              3.1568123      3.4995646    
     24500   2.8623004      0.16322967     0              3.0183743      3.228831     
     25000   2.779186       0.17490499     0              2.947143       3.2989724    
     25500   2.8534158      0.19073557     0              3.0370178      3.2345069    
     26000   2.9303399      0.21692948     0              3.1399436      3.5662208    
     26500   2.9020934      0.17065463     0              3.0654928      3.1549382    
     27000   3.1215728      0.21655215     0              3.330321       3.6559067    
     27500   3.1342918      0.29672847     0              3.4231845      4.1932631    
     28000   3.0812249      0.18864649     0              3.2621683      3.3668789    
     28500   2.9118222      0.21809852     0              3.1226411      3.4696312    
     29000   2.7207936      0.23307563     0              2.9470673      3.4539545    
     29500   2.8458092      0.17325496     0              3.0119496      3.2832385    
     30000   3.0838727      0.23212755     0              3.3082906      3.7148276    
     30500   3.1443702      0.21188988     0              3.3483991      3.5921572    
     31000   3.1253709      0.2805835      0              3.398141       4.0874086    
     31500   3.2332599      0.2056142      0              3.4307909      3.5082792    
     32000   3.026755       0.22755162     0              3.2467398      3.5735278    
     32500   2.8850342      0.26685401     0              3.1446757      3.7590905    
     33000   2.7885147      0.18937129     0              2.9709147      3.3261718    
     33500   2.9326712      0.19764144     0              3.122981       3.5240142    
     34000   3.0160642      0.17715654     0              3.1856806      3.2731809    
     34500   2.8277386      0.21530581     0              3.0359751      3.4718922    
     35000   2.959351       0.1343203      0              3.0862729      2.9381174    
     35500   2.8165559      0.24840334     0              3.0579179      3.5402963    
     36000   2.8629108      0.13304439     0              2.9887979      2.8105887    
     36500   3.0548375      0.21370192     0              3.2609023      3.6853217    
     37000   3.1544326      0.21059978     0              3.3571463      3.562148     
     37500   3.1541996      0.23229427     0              3.3786083      4.0284532    
     38000   3.0688628      0.2150533      0              3.2762439      3.5907332    
     38500   3.0925245      0.22853895     0              3.3133321      3.9475255    
     39000   3.1252693      0.18576376     0              3.3032199      3.4699028    
     39500   3.2061224      0.22076937     0              3.4188765      3.7425791    
     40000   2.7608699      0.2196802      0              2.9736479      3.3598303    
     40500   2.6846074      0.22460562     0              2.9025015      3.4440544    
     41000   2.9243237      0.15127118     0              3.068284       3.0387542    
     41500   2.9523167      0.22398902     0              3.1689249      3.6059925    
     42000   3.0685357      0.1992247      0              3.2600891      3.5931116    
     42500   3.2568806      0.19769408     0              3.4464325      3.5360277    
     43000   3.0560211      0.24491863     0              3.2932997      3.9556346    
     43500   3.1515388      0.24831805     0              3.391978       3.8152708    
     44000   3.0185581      0.331254       0              3.3422657      4.4499238    
     44500   3.117887       0.21773503     0              3.3278273      3.7458587    
     45000   3.0343415      0.20514048     0              3.2318961      3.323841     
     45500   2.9048782      0.24477211     0              3.1423881      3.7521688    
     46000   2.8543427      0.079018653    0              2.9262255      2.4639355    
     46500   2.9623199      0.18287438     0              3.1377885      3.3899114    
     47000   2.9608884      0.26953938     0              3.2230256      4.0078797    
     47500   3.1439603      0.18405805     0              3.3201585      3.476066     
     48000   3.0183908      0.28364317     0              3.294488       4.000704     
     48500   3.2556144      0.26507464     0              3.51255        4.1356705    
     49000   3.2767897      0.31818323     0              3.5867809      4.4950275    
     49500   3.0262353      0.20711008     0              3.2257798      3.672682     
     50000   3.0412005      0.15218901     0              3.1857865      3.112838     
Loop time of 1.7504 on 8 procs for 50000 steps with 400 atoms

Performance: 24680088.592 tau/day, 28564.917 timesteps/s, 11.426 Matom-step/s
99.5% CPU use with 8 MPI tasks x 1 OpenMP threads

MPI task timing breakdown:
Section |  min time  |  avg time  |  max time  |%varavg| %total
---------------------------------------------------------------
Pair    | 0.033429   | 0.03513    | 0.040199   |   1.2 |  2.01
Neigh   | 0.083786   | 0.084525   | 0.085904   |   0.3 |  4.83
Comm    | 1.083      | 1.0852     | 1.0885     |   0.2 | 62.00
Output  | 0.0026172  | 0.0031574  | 0.0067061  |   2.4 |  0.18
Modify  | 0.27956    | 0.28553    | 0.29283    |   0.9 | 16.31
Other   |            | 0.2569     |            |       | 14.67

Nlocal:             50 ave          53 max          47 min
Histogram: 1 1 0 1 0 2 1 0 1 1
Nghost:          29.75 ave          33 max          26 min
Histogram: 1 0 0 0 2 3 0 1 0 1
Neighs:          46.25 ave          58 max          40 min
Histogram: 3 0 1 1 0 2 0 0 0 1

Total # of neighbors = 370
Ave neighs/atom = 0.925
Neighbor list builds = 16970
Dangerous builds = 0

unfix 1
dump           1 all atom ${run_steps} 2dWCA_T${final_temperature}_d${density}_N${run_steps}.lammpstrj
dump           1 all atom 100000 2dWCA_T${final_temperature}_d${density}_N${run_steps}.lammpstrj
dump           1 all atom 100000 2dWCA_T0.1_d${density}_N${run_steps}.lammpstrj
dump           1 all atom 100000 2dWCA_T0.1_d0.5_N${run_steps}.lammpstrj
dump           1 all atom 100000 2dWCA_T0.1_d0.5_N100000.lammpstrj
dump           2 all dcd ${thermo_time} 2dWCA_T${final_temperature}_d${density}_N${run_steps}.dcd
dump           2 all dcd 500 2dWCA_T${final_temperature}_d${density}_N${run_steps}.dcd
dump           2 all dcd 500 2dWCA_T0.1_d${density}_N${run_steps}.dcd
dump           2 all dcd 500 2dWCA_T0.1_d0.5_N${run_steps}.dcd
dump           2 all dcd 500 2dWCA_T0.1_d0.5_N100000.dcd
fix 1 all nvt temp ${initial_temperature} ${final_temperature} ${tau}
fix 1 all nvt temp 3 ${final_temperature} ${tau}
fix 1 all nvt temp 3 0.1 ${tau}
fix 1 all nvt temp 3 0.1 1

run ${run_steps}
run 100000
Generated 0 of 0 mixed pair_coeff terms from geometric mixing rule
Per MPI rank memory allocation (min/avg/max) = 3.072 | 3.072 | 3.072 Mbytes
   Step          Temp          E_pair         E_mol          TotEng         Press     
     50000   3.0412005      0.15218901     0              3.1857865      3.112838     
     50500   2.893168       0.23946441     0              3.1253995      3.7951112    
     51000   2.9548966      0.24706129     0              3.1945707      3.8859729    
     51500   3.0508415      0.22967034     0              3.2728847      3.673426     
     52000   3.2742075      0.17365265     0              3.4396747      3.2647325    
     52500   2.972245       0.24843619     0              3.2132506      3.6671984    
     53000   3.0575551      0.16751128     0              3.2174225      3.3141421    
     53500   2.9500068      0.2018392      0              3.144471       3.2524699    
     54000   3.1163028      0.23572707     0              3.3442391      3.7678784    
     54500   3.0020092      0.34355163     0              3.3380558      4.4967917    
     55000   2.9390911      0.22825231     0              3.1599957      3.5352871    
     55500   2.9733079      0.14358724     0              3.1094619      3.0299172    
     56000   2.8182503      0.15427829     0              2.9654829      3.1414525    
     56500   2.7116949      0.14949927     0              2.8544149      3.1031757    
     57000   2.5988877      0.23958135     0              2.8319719      3.4202204    
     57500   2.8325685      0.21691291     0              3.0424         3.4180184    
     58000   2.8665906      0.23450873     0              3.0939329      3.6522742    
     58500   2.8620664      0.13658105     0              2.9914923      2.9418065    
     59000   2.9515678      0.17674407     0              3.1209329      3.2973761    
     59500   2.6909515      0.25211043     0              2.9363346      3.577581     
     60000   2.7013464      0.23232171     0              2.9269148      3.5280554    
     60500   2.6298957      0.18680617     0              2.8101272      3.221647     
     61000   2.507721       0.10982294     0              2.6112747      2.5037675    
     61500   2.5361549      0.15631577     0              2.6861303      2.9186867    
     62000   2.6798573      0.19161986     0              2.8647775      3.3584749    
     62500   2.7381451      0.20396273     0              2.9352624      3.3902861    
     63000   2.7007916      0.130661       0              2.8247006      2.7796318    
     63500   2.8524269      0.14220885     0              2.9875047      2.9454025    
     64000   2.6230572      0.2272994      0              2.843799       3.5870829    
     64500   2.6414753      0.17628308     0              2.8111547      3.0944062    
     65000   2.6176257      0.20473123     0              2.8158128      3.20192      
     65500   2.5206352      0.23153302     0              2.7458666      3.4547055    
     66000   2.6203749      0.14406152     0              2.7578855      2.8800207    
     66500   2.530212       0.17764552     0              2.7015319      3.0551582    
     67000   2.5276151      0.16055783     0              2.6818539      2.9311294    
     67500   2.4546587      0.20725748     0              2.6557795      3.1804397    
     68000   2.4211517      0.16940498     0              2.5845038      3.0971316    
     68500   2.3818976      0.23667468     0              2.6126176      3.5755815    
     69000   2.420856       0.12588905     0              2.5406929      2.5849282    
     69500   2.4028277      0.11497976     0              2.5118004      2.5823125    
     70000   2.3187436      0.18561674     0              2.4985635      3.0594068    
     70500   2.2955109      0.1616972      0              2.4514693      2.8210463    
     71000   2.4243828      0.12472348     0              2.5430454      2.4694681    
     71500   2.4570216      0.15370937     0              2.6045884      2.7160907    
     72000   2.3844024      0.22818458     0              2.606626       3.3371628    
     72500   2.5256734      0.16464775     0              2.684007       3.0387586    
     73000   2.2248231      0.18806179     0              2.4073229      2.9493819    
     73500   2.1908535      0.17394703     0              2.3593234      2.8702031    
     74000   2.2240247      0.10719317     0              2.3256578      2.337981     
     74500   2.1793573      0.11233149     0              2.2862404      2.4234546    
     75000   2.156174       0.1805536      0              2.3313372      2.7534692    
     75500   2.1533611      0.12317068     0              2.2711484      2.3223409    
     76000   2.1877848      0.13329565     0              2.315611       2.632845     
     76500   2.2129709      0.13670879     0              2.3441473      2.5644459    
     77000   2.3790292      0.16871876     0              2.5418004      2.8642714    
     77500   2.2820068      0.1719235      0              2.4482252      2.8485293    
     78000   2.1278522      0.2324656      0              2.3549982      3.227658     
     78500   2.1333393      0.12213522     0              2.2501411      2.330298     
     79000   1.9807339      0.10319019     0              2.0789723      2.2194602    
     79500   2.0433505      0.10888116     0              2.1471232      2.2155588    
     80000   2.0929139      0.19702324     0              2.2847049      2.9943261    
     80500   2.1992014      0.16495636     0              2.3586598      2.9025962    
     81000   2.1902741      0.15682624     0              2.3416246      2.8005022    
     81500   1.9286072      0.15413746     0              2.0779231      2.5951739    
     82000   1.9048744      0.12898264     0              2.0290949      2.4173696    
     82500   1.9571372      0.13269449     0              2.0849389      2.4367175    
     83000   2.1042531      0.10359115     0              2.2025836      2.2164395    
     83500   2.1926619      0.17701516     0              2.3641954      3.0972419    
     84000   2.17808        0.16177611     0              2.334411       2.8714893    
     84500   1.9923522      0.12571166     0              2.113083       2.3891806    
     85000   1.8478298      0.1632667      0              2.0064769      2.6068786    
     85500   1.8414945      0.15163842     0              1.9885291      2.6142608    
     86000   1.8726974      0.11235854     0              1.9803741      2.225181     
     86500   1.9897486      0.18862481     0              2.173399       2.9157688    
     87000   1.9830718      0.18077118     0              2.1588853      2.9032056    
     87500   2.0232672      0.10784891     0              2.1260579      2.1781863    
     88000   1.8979402      0.12840008     0              2.0215954      2.4805228    
     88500   1.7411246      0.10440439     0              1.8411762      2.075893     
     89000   1.8160728      0.1118888      0              1.9234214      2.1321664    
     89500   1.7496432      0.10195931     0              1.8472284      2.1226913    
     90000   1.6896822      0.10795201     0              1.79341        2.0679159    
     90500   1.7439046      0.075687057    0              1.8152319      1.8386707    
     91000   1.7505058      0.13062229     0              1.8767518      2.3452762    
     91500   1.752329       0.08566461     0              1.8336128      2.0085692    
     92000   1.7218299      0.15615627     0              1.8736816      2.4789312    
     92500   1.713769       0.12675868     0              1.8362432      2.1571535    
     93000   1.8650984      0.091330579    0              1.9517663      1.9813581    
     93500   1.8238064      0.072022553    0              1.8912695      1.8443676    
     94000   1.8273372      0.052736337    0              1.8755052      1.7022722    
     94500   1.7775899      0.14985709     0              1.923003       2.4340585    
     95000   1.6747414      0.14184005     0              1.8123946      2.3242995    
     95500   1.752859       0.08080503     0              1.8292819      1.8844385    
     96000   1.6757369      0.087960108    0              1.7595076      1.9039849    
     96500   1.5765253      0.095523267    0              1.6681072      1.9350213    
     97000   1.5647369      0.068392055    0              1.6292171      1.740715     
     97500   1.4271246      0.090058047    0              1.5136148      1.7772444    
     98000   1.5156644      0.082273346    0              1.5941486      1.8818094    
     98500   1.5113931      0.15418842     0              1.661803       2.3178786    
     99000   1.5801595      0.070660931    0              1.6468701      1.7734557    
     99500   1.5900052      0.084523408    0              1.6705536      1.8580549    
    100000   1.547787       0.10264738     0              1.6465649      2.0603775    
    100500   1.6473044      0.10167759     0              1.7448637      2.0666506    
    101000   1.5495363      0.11940183     0              1.6650643      2.1489617    
    101500   1.522862       0.092210377    0              1.6112653      1.9444561    
    102000   1.4637393      0.085481561    0              1.5455615      1.8442427    
    102500   1.3560581      0.10320843     0              1.4558764      1.848505     
    103000   1.4710684      0.060552238    0              1.527943       1.5723048    
    103500   1.4024337      0.080741836    0              1.4796694      1.7299662    
    104000   1.3592609      0.150299       0              1.5061617      2.3588338    
    104500   1.4426765      0.086666543    0              1.5257364      1.8494139    
    105000   1.4775523      0.090926394    0              1.5647849      1.8299573    
    105500   1.4429458      0.067498366    0              1.5068368      1.64304      
    106000   1.3889405      0.076508593    0              1.4619768      1.7016709    
    106500   1.4770393      0.10468822     0              1.5780349      1.9312319    
    107000   1.4796344      0.07037639     0              1.5463117      1.6377765    
    107500   1.3749003      0.1213627      0              1.4928257      2.0860235    
    108000   1.3261627      0.074592036    0              1.3974393      1.6391781    
    108500   1.3297074      0.082404414    0              1.4087875      1.7256169    
    109000   1.2959523      0.055415433    0              1.3481279      1.4451845    
    109500   1.2127018      0.045088607    0              1.2547586      1.2691029    
    110000   1.21913        0.090044852    0              1.306127       1.7659966    
    110500   1.1963842      0.061719063    0              1.2551123      1.4403733    
    111000   1.1985886      0.045193115    0              1.2407852      1.2672135    
    111500   1.2311303      0.043699781    0              1.2717522      1.2707075    
    112000   1.1653838      0.087593177    0              1.2500635      1.7465007    
    112500   1.2036108      0.059104723    0              1.2597065      1.3653465    
    113000   1.2436558      0.059974575    0              1.3005213      1.5385641    
    113500   1.2882458      0.077962871    0              1.362988       1.593912     
    114000   1.222311       0.066071997    0              1.2853273      1.4522602    
    114500   1.1707165      0.026974571    0              1.1947643      1.0556301    
    115000   1.0518621      0.037080121    0              1.0863125      1.1518545    
    115500   1.0777753      0.061886777    0              1.1369677      1.3573618    
    116000   1.0528269      0.055200493    0              1.1053954      1.3826086    
    116500   1.0951067      0.038846951    0              1.1312159      1.0959435    
    117000   1.1094174      0.064791145    0              1.171435       1.4110468    
    117500   1.0652558      0.043413314    0              1.106006       1.2236416    
    118000   1.0651679      0.059870565    0              1.1223755      1.413717     
    118500   0.99855115     0.063689503    0              1.0597443      1.38704      
    119000   0.9419171      0.049371327    0              0.98893364     1.1697577    
    119500   0.90096578     0.038321748    0              0.93703511     1.0509993    
    120000   0.90521398     0.033099142    0              0.93605009     0.98523875   
    120500   0.96310309     0.034413818    0              0.99510915     1.0204345    
    121000   0.96696961     0.039181136    0              1.0037333      1.0512428    
    121500   0.95912536     0.04686747     0              1.003595       1.0816186    
    122000   0.99489213     0.045705413    0              1.0381103      1.0983172    
    122500   0.89431591     0.031085498    0              0.92316561     1.0145673    
    123000   0.84712247     0.034047914    0              0.87905257     0.95233087   
    123500   0.83685879     0.046328435    0              0.88109508     1.1804144    
    124000   0.84620046     0.045253571    0              0.88933853     1.0523288    
    124500   0.84152886     0.045938704    0              0.88536374     1.0631688    
    125000   0.87508527     0.048684205    0              0.92158176     1.1872027    
    125500   0.88921989     0.05020136     0              0.9371982      1.168414     
    126000   0.75697678     0.047424544    0              0.80250889     1.0458375    
    126500   0.76949044     0.03284628     0              0.80041299     0.91905769   
    127000   0.75031274     0.020405928    0              0.76884289     0.75406096   
    127500   0.69153709     0.051562676    0              0.74137093     1.1122345    
    128000   0.74279479     0.029486157    0              0.77042396     0.87658312   
    128500   0.75648869     0.039382282    0              0.79397975     1.0082279    
    129000   0.70881151     0.058552602    0              0.76559208     1.152971     
    129500   0.68397706     0.041945945    0              0.72421307     1.0183287    
    130000   0.64100452     0.024523048    0              0.66392506     0.74586305   
    130500   0.6188246      0.025380356    0              0.6426579      0.80022906   
    131000   0.59973001     0.018163376    0              0.61639406     0.64376363   
    131500   0.66119261     0.026061816    0              0.68560145     0.76886647   
    132000   0.6515002      0.030188989    0              0.68006044     0.82973413   
    132500   0.63119029     0.025332727    0              0.65494504     0.7709341    
    133000   0.59052616     0.030143291    0              0.61919314     0.83674983   
    133500   0.52695861     0.024711273    0              0.55035249     0.71629048   
    134000   0.54472473     0.026426893    0              0.56978981     0.76069972   
    134500   0.51819767     0.02178563     0              0.53868781     0.65776133   
    135000   0.5253266      0.02611987     0              0.55013315     0.74125475   
    135500   0.50043734     0.028002099    0              0.52718835     0.74442392   
    136000   0.46604922     0.025526763    0              0.49041086     0.66772494   
    136500   0.46943161     0.025046575    0              0.49330461     0.65725027   
    137000   0.47100387     0.013777376    0              0.48360374     0.52376062   
    137500   0.42491395     0.030287719    0              0.45413939     0.76839305   
    138000   0.44699581     0.023920661    0              0.46979898     0.60386459   
    138500   0.45825433     0.023337195    0              0.48044589     0.68824683   
    139000   0.44010231     0.019006705    0              0.45800876     0.61510541   
    139500   0.42605859     0.015040095    0              0.44003354     0.5265436    
    140000   0.35552342     0.026314836    0              0.38094945     0.67823278   
    140500   0.37134565     0.0077773254   0              0.37819461     0.38170733   
    141000   0.34762761     0.015809365    0              0.36256791     0.49889818   
    141500   0.34214526     0.026102562    0              0.36739246     0.58999976   
    142000   0.37126137     0.011553535    0              0.38188675     0.47516894   
    142500   0.33762038     0.016432769    0              0.3532091      0.49519321   
    143000   0.28785578     0.011925593    0              0.29906174     0.40419057   
    143500   0.26764268     0.010427839    0              0.27740141     0.36201076   
    144000   0.26643405     0.0055996233   0              0.27136759     0.28494031   
    144500   0.25598963     0.01047482     0              0.26582448     0.4010202    
    145000   0.25207877     0.0089254222   0              0.26037399     0.32915555   
    145500   0.23259528     0.0038023782   0              0.23581617     0.23239514   
    146000   0.23455033     0.006189381    0              0.24015334     0.30267261   
    146500   0.2025082      0.0043198427   0              0.20632177     0.21869495   
    147000   0.18679391     0.006296925    0              0.19262385     0.260189     
    147500   0.15729934     0.0056434636   0              0.16254956     0.23924581   
    148000   0.15688046     0.0036860515   0              0.16017431     0.2012803    
    148500   0.14684002     0.0040231201   0              0.15049604     0.19299603   
    149000   0.12700873     0.0040807858   0              0.13077199     0.19423896   
    149500   0.11373539     0.0034449683   0              0.11689602     0.16500056   
    150000   0.094595096    0.0021155598   0              0.096474168    0.13278085   
Loop time of 3.28024 on 8 procs for 100000 steps with 400 atoms

Performance: 26339516.422 tau/day, 30485.551 timesteps/s, 12.194 Matom-step/s
99.6% CPU use with 8 MPI tasks x 1 OpenMP threads

MPI task timing breakdown:
Section |  min time  |  avg time  |  max time  |%varavg| %total
---------------------------------------------------------------
Pair    | 0.058999   | 0.061727   | 0.069547   |   1.4 |  1.88
Neigh   | 0.12173    | 0.12319    | 0.12556    |   0.4 |  3.76
Comm    | 1.9954     | 2.0001     | 2.0063     |   0.2 | 60.97
Output  | 0.027054   | 0.027311   | 0.027696   |   0.1 |  0.83
Modify  | 0.56069    | 0.56874    | 0.57956    |   0.8 | 17.34
Other   |            | 0.4991     |            |       | 15.22

Nlocal:             50 ave          54 max          46 min
Histogram: 1 0 1 1 0 1 3 0 0 1
Nghost:             29 ave          33 max          24 min
Histogram: 1 0 1 1 1 0 1 0 2 1
Neighs:             47 ave          55 max          38 min
Histogram: 1 0 1 0 2 1 1 1 0 1

Total # of neighbors = 376
Ave neighs/atom = 0.94
Neighbor list builds = 24841
Dangerous builds = 0
Total wall time: 0:00:05
