ITEM: TIMESTEP
100000
ITEM: NUMBER OF ATOMS
2048
ITEM: BOX BOUNDS pp pp pp
0.0000000000000000e+00 1.3679807573413575e+01
0.0000000000000000e+00 1.3679807573413575e+01
0.0000000000000000e+00 1.3679807573413575e+01
ITEM: ATOMS id type xs ys zs
352 1 0.0107567 0.0103364 0.0264276
1342 1 0.0829042 0.0367671 0.0171496
646 1 0.153266 0.00148296 0.0173525
1338 1 0.473836 0.0051765 0.0393345
1533 1 0.617984 0.027829 0.0187681
660 1 0.871963 0.025292 0.0279683
1416 1 0.939441 0.0141767 0.0146357
314 1 0.0133375 0.0849417 0.0302393
280 1 0.193331 0.0669318 0.0220084
1358 1 0.397879 0.0775994 0.0203323
555 1 0.698933 0.0750016 0.0412502
376 1 0.0807551 0.108541 0.00849605
205 1 0.498063 0.106414 0.0460858
33 1 0.632653 0.119626 0.0144407
1864 1 0.950899 0.120074 0.0101633
1966 1 0.0223439 0.149653 0.00224194
1271 1 0.262652 0.145165 0.0150598
440 1 0.348985 0.143319 0.0287211
453 1 0.757733 0.157671 0.00469179
398 1 0.887 0.147998 0.035035
1188 1 0.0746845 0.202606 0.00091929
1217 1 0.241757 0.211024 0.0104609
1983 1 0.355643 0.205509 0.00357368
1435 1 0.422965 0.190942 0.0419361
906 1 0.598161 0.204442 0.0284292
302 1 0.812083 0.199443 0.0364806
1415 1 0.94979 0.193484 0.00993756
1065 1 0.780742 0.252241 0.00269938
210 1 0.987061 0.262368 0.00588851
621 1 0.0492337 0.311338 0.0178675
1365 1 0.242273 0.28794 0.0459833
1551 1 0.513282 0.314001 0.0259284
953 1 0.675572 0.302296 0.0127353
1637 1 0.0766364 0.372778 0.0294591
1698 1 0.431156 0.342807 0.0297432
677 1 0.60328 0.333508 0.0163449
1658 1 0.864732 0.346102 0.0103349
103 1 0.0108872 0.422686 0.0140464
320 1 0.340048 0.41031 0.0223561
885 1 0.562746 0.424711 0.000865898
943 1 0.711237 0.399252 0.0248425
1094 1 0.790559 0.385147 0.0411348
56 1 0.137629 0.442668 0.0184584
524 1 0.300878 0.471889 0.0234287
800 1 0.429468 0.458321 0.0275951
775 1 0.618727 0.458241 0.031332
833 1 0.0188158 0.50593 0.0147964
1038 1 0.110267 0.515024 0.00235522
910 1 0.233543 0.48306 0.0146758
158 1 0.386578 0.523143 0.0254276
431 1 0.5711 0.52169 0.0176122
1410 1 0.820972 0.48873 0.0294489
954 1 0.935118 0.509239 0.00221122
415 1 0.453544 0.526753 0.00881294
1979 1 0.689137 0.545966 0.0416927
1527 1 0.759698 0.527604 0.0316494
810 1 0.853449 0.552188 0.014755
152 1 0.976495 0.56462 0.033215
1839 1 0.073955 0.575059 0.000640105
231 1 0.150162 0.592145 0.00610394
511 1 0.224589 0.597936 0.0126827
1085 1 0.430286 0.58896 0.0290762
289 1 0.663943 0.61359 0.0214895
895 1 0.290437 0.633284 0.0266463
656 1 0.365187 0.634866 0.0454665
1762 1 0.468744 0.649038 0.0354027
706 1 0.556098 0.63661 0.0162627
1615 1 0.914166 0.628534 0.0343595
446 1 0.245232 0.707683 0.022171
1176 1 0.401978 0.696015 0.00499232
1249 1 0.978294 0.671674 0.0313343
946 1 0.0577797 0.741185 0.040774
1994 1 0.678868 0.719964 0.0166249
708 1 0.784785 0.749642 0.0220263
390 1 0.862488 0.746496 0.0128102
842 1 0.944736 0.759073 0.047387
1563 1 0.103366 0.789751 0.0184839
161 1 0.247077 0.782962 0.0452491
791 1 0.365264 0.778913 0.0115315
749 1 0.540565 0.770278 0.0196862
1550 1 0.51061 0.83758 0.00552348
37 1 0.736133 0.853889 0.00528898
1058 1 0.817774 0.810063 0.00874275
169 1 0.918834 0.813703 0.0127958
84 1 0.985218 0.856546 0.00516054
2031 1 0.0694701 0.898207 0.0197421
258 1 0.199249 0.865487 0.0318341
1052 1 0.276489 0.873142 0.0470723
330 1 0.350089 0.89313 0.030341
1084 1 0.612781 0.871177 0.036076
159 1 0.864057 0.864223 0.00886886
1500 1 0.478559 0.930637 0.0192217
1068 1 0.561405 0.904864 0.00138568
729 1 0.616156 0.951493 0.0208087
32 1 0.223052 0.962899 0.0069828
1251 1 0.535194 0.97239 0.0326744
540 1 0.0192528 0.0417719 0.0931487
1006 1 0.0885515 0.0211882 0.0929601
1627 1 0.236959 0.0178758 0.075805
692 1 0.347681 0.0423659 0.0652454
412 1 0.570262 0.019756 0.0803612
1115 1 0.803717 0.0378823 0.0535903
1276 1 0.0665228 0.0931334 0.0747985
427 1 0.284494 0.0723039 0.0671186
1770 1 0.611971 0.0861523 0.0885769
392 1 0.00292639 0.13463 0.0771635
1804 1 0.137586 0.124568 0.0513676
1874 1 0.563772 0.124476 0.0498925
1950 1 0.694402 0.141216 0.0602398
863 1 0.7938 0.107342 0.0539604
972 1 0.936163 0.113018 0.0936799
1913 1 0.0711952 0.167808 0.0616449
367 1 0.199645 0.158173 0.0592692
1392 1 0.269252 0.150743 0.0898742
865 1 0.370672 0.173076 0.0912824
606 1 0.309964 0.210325 0.0600896
1841 1 0.709587 0.226782 0.0801953
1078 1 0.922471 0.212669 0.0703779
1432 1 0.994225 0.211194 0.075028
1359 1 0.0324859 0.269242 0.0753501
115 1 0.101685 0.249994 0.0512934
977 1 0.379454 0.243576 0.0673939
551 1 0.457766 0.25106 0.0836796
4 1 0.607658 0.256466 0.0776048
1018 1 0.844627 0.24687 0.0850122
890 1 0.128351 0.319387 0.0532602
293 1 0.312777 0.293943 0.0529951
603 1 0.37696 0.324811 0.0715645
1067 1 0.476155 0.321352 0.0832088
623 1 0.718191 0.308614 0.0715331
1747 1 0.808973 0.313685 0.0620154
48 1 0.940892 0.310709 0.0492853
1633 1 0.0151764 0.335426 0.0820875
1782 1 0.298873 0.367979 0.0742343
257 1 0.662655 0.374195 0.0777451
721 1 0.0187183 0.419804 0.0843221
1377 1 0.161464 0.386998 0.0601218
1739 1 0.226015 0.399679 0.0718566
1012 1 0.441172 0.40372 0.0736071
2004 1 0.516962 0.421944 0.060869
857 1 0.593935 0.400456 0.0691752
1380 1 0.946127 0.411798 0.0582124
137 1 0.0949072 0.434094 0.0755872
984 1 0.269279 0.44515 0.0917993
1315 1 0.687403 0.4586 0.0689465
1898 1 0.779907 0.44848 0.0800352
968 1 0.849847 0.43102 0.0623597
5 1 0.0340986 0.493672 0.0858806
1623 1 0.160933 0.494486 0.0759846
189 1 0.337941 0.499792 0.0894547
1693 1 0.554236 0.476989 0.0888427
1816 1 0.870149 0.506423 0.0807341
155 1 0.952127 0.494927 0.0799348
2002 1 0.0231284 0.563241 0.0942445
1825 1 0.125908 0.557553 0.0724201
896 1 0.278399 0.527799 0.0629258
1044 1 0.505021 0.544971 0.0557453
247 1 0.922826 0.558246 0.0798979
1599 1 0.0383571 0.61899 0.0558652
1360 1 0.32638 0.585068 0.0826888
627 1 0.604726 0.579408 0.066781
1159 1 0.743913 0.600826 0.0481572
1144 1 0.108431 0.640715 0.0630366
1195 1 0.197085 0.65883 0.0606786
1316 1 0.525014 0.625065 0.0932364
645 1 0.627154 0.645029 0.0741401
2035 1 0.70781 0.657614 0.0703957
682 1 0.786464 0.655687 0.0499646
544 1 0.973315 0.637657 0.093726
1957 1 0.312199 0.694144 0.0664548
181 1 0.411068 0.669878 0.0946892
1823 1 0.511933 0.700412 0.0609028
1175 1 0.585145 0.713852 0.055892
1856 1 0.919777 0.702796 0.0938642
647 1 0.183607 0.728896 0.0774442
811 1 0.379122 0.744676 0.090977
287 1 0.451835 0.733653 0.0895638
1521 1 0.730441 0.722325 0.089572
72 1 0.847058 0.741242 0.0912596
145 1 0.426948 0.797553 0.0628007
1712 1 0.676363 0.786618 0.0770857
2023 1 0.0362486 0.81336 0.0527129
339 1 0.341919 0.832296 0.0771879
395 1 0.721811 0.856617 0.0715809
636 1 0.794217 0.831235 0.0735806
714 1 0.867516 0.818155 0.0867739
1105 1 0.0169373 0.876853 0.0797555
1909 1 0.147228 0.901676 0.065966
1879 1 0.211677 0.896872 0.0937762
142 1 0.463993 0.862629 0.0615882
259 1 0.546798 0.903008 0.068276
1783 1 0.050574 0.940203 0.0750644
526 1 0.264896 0.943844 0.0696671
1151 1 0.415315 0.916275 0.0505001
1877 1 0.62663 0.927115 0.0864351
1836 1 0.707998 0.922176 0.0549772
290 1 0.78574 0.906629 0.0625526
1812 1 0.908661 0.907626 0.0567629
1429 1 0.973998 0.938278 0.0649192
962 1 0.331108 0.971438 0.070938
1681 1 0.669612 0.999703 0.0641664
1591 1 0.744262 0.99883 0.0594396
1272 1 0.8228 0.960146 0.0928969
1370 1 0.405753 0.0338739 0.134274
1280 1 0.645469 0.0174433 0.130307
758 1 0.718255 0.0454712 0.102669
1226 1 0.78501 0.0359326 0.127782
1346 1 0.885486 0.0392302 0.106293
266 1 0.960802 0.00208047 0.100897
1403 1 0.196753 0.060203 0.126484
1869 1 0.33467 0.0758245 0.138231
1581 1 0.507606 0.0514649 0.108073
1229 1 0.407329 0.0981334 0.0952707
989 1 0.520008 0.11738 0.12554
1865 1 0.656985 0.116672 0.130625
350 1 0.77066 0.111139 0.137785
292 1 0.855224 0.106778 0.102221
981 1 0.0383676 0.182269 0.12329
894 1 0.450447 0.156455 0.104761
1494 1 0.578306 0.186697 0.100294
1733 1 0.730278 0.181434 0.136342
1682 1 0.788737 0.168551 0.0954043
128 1 0.903812 0.182995 0.137892
481 1 0.167761 0.220299 0.0955297
1167 1 0.50603 0.204525 0.107872
681 1 0.7785 0.234869 0.112139
1650 1 0.294554 0.271259 0.121839
131 1 0.513169 0.268057 0.138242
251 1 0.204515 0.30856 0.113385
1156 1 0.426277 0.286455 0.135831
835 1 0.634122 0.330204 0.12332
580 1 0.890713 0.295785 0.111103
1967 1 0.0880277 0.360632 0.0997495
55 1 0.530743 0.349881 0.123071
709 1 0.725582 0.375051 0.137744
101 1 0.917988 0.363044 0.0990449
219 1 0.9858 0.37664 0.134573
1886 1 0.120887 0.417247 0.14254
1407 1 0.364075 0.402483 0.0980517
1888 1 0.821894 0.383083 0.131848
1242 1 0.213125 0.430174 0.135526
1354 1 0.739077 0.45413 0.141914
2019 1 0.886404 0.454894 0.136572
858 1 0.975435 0.451211 0.134838
1145 1 0.414855 0.494407 0.116094
996 1 0.483174 0.497703 0.107116
1649 1 0.207705 0.532106 0.116213
1537 1 0.381226 0.559396 0.120946
2010 1 0.452254 0.570068 0.116499
1749 1 0.535947 0.559457 0.124593
1224 1 0.635838 0.524754 0.0999182
1734 1 0.75316 0.524578 0.111126
1793 1 0.126591 0.618058 0.126764
1933 1 0.222199 0.617443 0.114481
1215 1 0.280351 0.582352 0.133546
439 1 0.584295 0.612585 0.13237
318 1 0.703518 0.58567 0.103546
821 1 0.879383 0.589491 0.136377
458 1 0.05595 0.631452 0.132452
2043 1 0.755554 0.622471 0.140662
831 1 0.831373 0.632413 0.101396
1411 1 0.0236652 0.688907 0.103939
1936 1 0.24827 0.713013 0.116939
123 1 0.541503 0.69845 0.130121
563 1 0.786768 0.702916 0.130425
212 1 0.104664 0.715434 0.104443
1706 1 0.666092 0.715159 0.12602
42 1 0.0201178 0.763473 0.115147
881 1 0.0818099 0.804946 0.105501
432 1 0.17513 0.773711 0.133257
1827 1 0.295912 0.777329 0.113628
338 1 0.424467 0.80553 0.138297
579 1 0.524242 0.776798 0.102666
600 1 0.61496 0.771225 0.120378
720 1 0.149091 0.849532 0.115237
282 1 0.218181 0.829957 0.118761
447 1 0.285958 0.847596 0.115272
328 1 0.491324 0.836688 0.124119
1489 1 0.622442 0.841715 0.122157
1041 1 0.730505 0.812199 0.130816
96 1 0.927866 0.854215 0.104907
1384 1 0.415215 0.894779 0.14189
1799 1 0.690082 0.896783 0.121238
220 1 0.763876 0.880475 0.131261
297 1 0.853649 0.882954 0.116591
499 1 0.27114 0.913812 0.141741
1331 1 0.355651 0.912715 0.114965
1759 1 0.919686 0.932869 0.12343
1862 1 0.997099 0.945423 0.141509
1726 1 0.172113 0.975225 0.11881
317 1 0.241331 0.978542 0.14118
1858 1 0.426725 0.964584 0.122253
1788 1 0.503893 0.970079 0.117114
1808 1 0.571493 0.953334 0.126632
1394 1 0.731789 0.96231 0.13175
1696 1 0.0221195 0.00163722 0.185696
15 1 0.308522 0.00871685 0.150936
931 1 0.50721 0.0120504 0.180962
828 1 0.573314 0.0232773 0.149284
661 1 0.0528321 0.0783031 0.182798
2022 1 0.132904 0.0576301 0.178502
188 1 0.457198 0.0810533 0.144714
1222 1 0.540313 0.0808668 0.185714
64 1 0.62811 0.0731261 0.182958
1470 1 0.94178 0.0651197 0.167715
1920 1 0.0010674 0.113233 0.145215
1262 1 0.185854 0.121788 0.149367
1111 1 0.307505 0.139516 0.155614
1495 1 0.396018 0.140753 0.158318
371 1 0.879089 0.097606 0.172043
583 1 0.467756 0.187465 0.171996
659 1 0.589761 0.150371 0.172504
1125 1 0.82635 0.161643 0.156796
588 1 0.981884 0.189427 0.174989
1466 1 0.122377 0.233398 0.170452
496 1 0.230905 0.193692 0.146008
397 1 0.647792 0.202185 0.153937
68 1 0.705706 0.224984 0.189567
1047 1 0.372747 0.253051 0.177395
1436 1 0.590783 0.279043 0.146372
1676 1 0.66377 0.272091 0.154902
1486 1 0.770048 0.268735 0.188023
130 1 0.841107 0.240981 0.169019
768 1 0.913153 0.24595 0.178118
873 1 0.0255262 0.299456 0.15671
1275 1 0.693888 0.332786 0.188032
987 1 0.817191 0.313816 0.157361
1854 1 0.957212 0.299688 0.173114
1110 1 0.134975 0.349018 0.155676
1023 1 0.216896 0.361446 0.161271
652 1 0.301136 0.343509 0.145796
1803 1 0.384184 0.341388 0.145396
639 1 0.462264 0.353474 0.158927
559 1 0.554141 0.344828 0.189138
267 1 0.281449 0.403017 0.185269
998 1 0.579064 0.406527 0.153319
1300 1 0.656772 0.393129 0.163465
2015 1 0.321386 0.47366 0.168903
663 1 0.384221 0.432941 0.167937
664 1 0.483554 0.430548 0.164947
457 1 0.629354 0.456198 0.14462
841 1 0.811649 0.452428 0.150412
1703 1 0.0308195 0.507061 0.179138
1102 1 0.156502 0.486458 0.148264
312 1 0.469189 0.50988 0.180518
1514 1 0.583009 0.50714 0.147405
408 1 0.96624 0.520947 0.14903
106 1 0.0775797 0.556483 0.153805
1993 1 0.679234 0.547176 0.156143
216 1 0.761117 0.549147 0.185966
782 1 0.15801 0.578713 0.175623
1546 1 0.340649 0.618005 0.17608
467 1 0.455035 0.60031 0.183358
999 1 0.526121 0.616607 0.173967
817 1 0.815115 0.598871 0.182483
1592 1 0.956419 0.599048 0.146727
58 1 0.278124 0.651588 0.151328
571 1 0.641326 0.62381 0.176118
1424 1 0.176876 0.675367 0.143561
200 1 0.343032 0.699252 0.147607
673 1 0.465922 0.695886 0.165648
671 1 0.857351 0.676301 0.149036
91 1 0.994037 0.667135 0.166979
1976 1 0.108785 0.730368 0.178342
2029 1 0.214996 0.728847 0.174769
993 1 0.288445 0.739704 0.171965
1729 1 0.509036 0.754985 0.171918
1484 1 0.709067 0.738425 0.176954
1339 1 0.955115 0.737616 0.160592
1070 1 0.275676 0.80923 0.176016
713 1 0.778129 0.765302 0.156203
228 1 0.920322 0.799349 0.149532
527 1 0.348956 0.824142 0.144306
1095 1 0.808921 0.829095 0.175325
557 1 0.988344 0.843547 0.146949
1482 1 0.0578775 0.88058 0.174208
1523 1 0.190834 0.867852 0.177262
39 1 0.516219 0.901794 0.156177
1481 1 0.907494 0.882483 0.169054
1520 1 0.138711 0.916302 0.147839
226 1 0.658543 0.946349 0.170464
966 1 0.805186 0.904958 0.186232
403 1 0.0830038 0.969798 0.165727
335 1 0.851104 0.992578 0.14897
921 1 0.934051 0.986005 0.168872
203 1 0.209771 0.00545432 0.202738
807 1 0.358921 0.0448676 0.202288
612 1 0.567949 0.0256866 0.236181
1473 1 0.679685 0.0450398 0.230425
295 1 0.752417 0.0209331 0.202106
14 1 0.829481 0.0177256 0.213549
1562 1 0.908033 0.0105298 0.231187
1754 1 0.267542 0.0838379 0.197672
745 1 0.447902 0.0526 0.210042
1327 1 0.813861 0.0935261 0.208662
1069 1 0.0146565 0.122842 0.223148
402 1 0.183555 0.0988237 0.224222
2040 1 0.391532 0.117675 0.235307
117 1 0.476073 0.122833 0.198496
494 1 0.937288 0.134328 0.202905
581 1 0.136231 0.16825 0.200645
589 1 0.679183 0.156472 0.198288
1184 1 0.747198 0.154535 0.221503
1978 1 0.0685144 0.197898 0.206246
1131 1 0.196264 0.229501 0.203607
1024 1 0.299729 0.216031 0.209921
1434 1 0.367939 0.212374 0.235504
268 1 0.565285 0.208044 0.208882
348 1 0.640558 0.217395 0.220341
1914 1 0.0468142 0.280678 0.223205
1444 1 0.242364 0.28069 0.191246
1108 1 0.434971 0.246091 0.229026
1387 1 0.511871 0.271792 0.208029
693 1 0.147576 0.293332 0.197227
69 1 0.337994 0.306624 0.20155
1723 1 0.452219 0.314027 0.224207
1164 1 0.611771 0.319969 0.222522
1900 1 0.835349 0.296165 0.223225
1177 1 0.0209647 0.361205 0.214361
1009 1 0.275244 0.343343 0.213845
1083 1 0.915335 0.35424 0.192201
1587 1 0.0946812 0.415136 0.209804
1663 1 0.209316 0.408125 0.213614
674 1 0.368607 0.382492 0.225918
1991 1 0.791464 0.402845 0.198131
1294 1 0.893453 0.418624 0.207832
1375 1 0.0352466 0.439739 0.191252
1166 1 0.151778 0.457861 0.211827
1674 1 0.52411 0.464613 0.228093
491 1 0.677051 0.444786 0.222739
1146 1 0.971565 0.467062 0.215643
353 1 0.217576 0.488046 0.20413
1593 1 0.379809 0.478118 0.224829
264 1 0.600544 0.48265 0.212569
1137 1 0.751049 0.48431 0.218775
705 1 0.898958 0.498827 0.193869
250 1 0.115079 0.53063 0.207278
428 1 0.279913 0.532939 0.200456
1661 1 0.351337 0.534753 0.193322
464 1 0.417086 0.543446 0.220991
1666 1 0.529442 0.529153 0.206025
1588 1 0.60501 0.559484 0.20197
608 1 0.835765 0.534475 0.210147
255 1 0.226316 0.58464 0.216211
1089 1 0.72261 0.607984 0.198438
718 1 0.883359 0.583951 0.22103
622 1 0.0202909 0.622983 0.225441
469 1 0.121286 0.64636 0.19628
1233 1 0.214518 0.660745 0.219118
1140 1 0.837957 0.64868 0.225046
1949 1 0.930093 0.650974 0.197458
505 1 0.160332 0.705578 0.229403
498 1 0.394458 0.671945 0.191475
538 1 0.477154 0.670582 0.234615
1122 1 0.555614 0.685834 0.205778
1493 1 0.756022 0.675573 0.195489
1216 1 0.0346771 0.714684 0.216789
1557 1 0.371593 0.76053 0.212986
1059 1 0.81361 0.731921 0.217924
2045 1 0.892627 0.72185 0.216303
163 1 0.026575 0.783036 0.20258
465 1 0.142556 0.787657 0.201416
736 1 0.208116 0.776491 0.229446
1135 1 0.44176 0.765369 0.195743
483 1 0.542544 0.763366 0.234517
711 1 0.644924 0.767107 0.197919
60 1 0.85163 0.802563 0.236442
1208 1 0.452071 0.822871 0.233995
49 1 0.539096 0.830122 0.19949
1719 1 0.639996 0.839837 0.208202
1032 1 0.72872 0.825587 0.203793
648 1 0.991229 0.851507 0.233232
1490 1 0.607156 0.899531 0.199112
1944 1 0.717693 0.896509 0.229174
153 1 0.0269391 0.921752 0.231929
1835 1 0.111565 0.918058 0.223123
930 1 0.233588 0.910796 0.232776
1064 1 0.373441 0.910162 0.205945
1334 1 0.453802 0.918182 0.203823
1026 1 0.542332 0.94281 0.222727
107 1 0.888274 0.940793 0.211556
1531 1 0.134072 0.994612 0.20821
243 1 0.313592 0.965561 0.209815
393 1 0.40331 0.994209 0.224879
147 1 0.63061 0.995497 0.221504
1385 1 0.0964752 0.00946173 0.267537
1130 1 0.1697 0.0357304 0.270168
1087 1 0.496959 0.0229708 0.25727
1013 1 0.0972423 0.0769736 0.260575
951 1 0.249099 0.0832777 0.269901
486 1 0.310294 0.0534657 0.249055
378 1 0.461904 0.0810834 0.274277
46 1 0.589711 0.0943128 0.243558
525 1 0.739752 0.077063 0.244685
349 1 0.87243 0.0600089 0.265532
1299 1 0.518318 0.136464 0.257538
80 1 0.692469 0.131399 0.261801
990 1 0.868927 0.133318 0.246958
1408 1 0.0818309 0.156006 0.26739
1851 1 0.228568 0.151007 0.248622
136 1 0.318815 0.146884 0.248858
184 1 0.45803 0.178546 0.254891
1881 1 0.61471 0.161075 0.255974
995 1 0.799712 0.14591 0.276185
629 1 0.0365619 0.232729 0.275002
1714 1 0.106223 0.230393 0.258467
1357 1 0.48848 0.236805 0.277432
424 1 0.728851 0.21101 0.270842
1212 1 0.805395 0.230842 0.239219
182 1 0.902562 0.193794 0.240565
640 1 0.971644 0.196877 0.259322
199 1 0.205991 0.27294 0.258501
1959 1 0.321215 0.278609 0.267337
337 1 0.698977 0.280038 0.248743
1460 1 0.868378 0.242097 0.28199
1128 1 0.95484 0.26206 0.280668
500 1 0.114916 0.298517 0.274815
213 1 0.548345 0.304032 0.256774
957 1 0.185995 0.349749 0.24618
1540 1 0.315124 0.371567 0.278955
967 1 0.665446 0.369841 0.246869
1388 1 0.735676 0.361155 0.25104
1321 1 0.815532 0.361271 0.272947
1775 1 0.884552 0.372307 0.264443
1609 1 0.0606855 0.426236 0.27233
1767 1 0.226192 0.411968 0.280021
1230 1 0.463686 0.391395 0.246509
442 1 0.573284 0.391162 0.246742
342 1 0.949571 0.390147 0.25067
761 1 0.307281 0.443751 0.249044
436 1 0.444164 0.469009 0.252107
52 1 0.822965 0.435447 0.261295
1187 1 0.894343 0.443423 0.276092
994 1 0.112428 0.494986 0.282169
1731 1 0.33702 0.521211 0.263689
248 1 0.71359 0.477299 0.280687
25 1 0.901375 0.513197 0.266925
70 1 0.0565506 0.550976 0.249406
1774 1 0.215944 0.527726 0.268897
1554 1 0.480285 0.558096 0.262158
2042 1 0.649396 0.531751 0.250604
218 1 0.718923 0.555284 0.252464
830 1 0.809434 0.537638 0.275548
1619 1 0.957281 0.567153 0.239322
1022 1 0.0802197 0.60598 0.284334
1929 1 0.150997 0.587409 0.246963
1625 1 0.308531 0.608716 0.249824
690 1 0.434737 0.609592 0.253008
166 1 0.566108 0.575382 0.263605
1323 1 0.63758 0.612972 0.261484
204 1 0.571516 0.642941 0.274628
445 1 0.69867 0.649801 0.253193
50 1 0.0319689 0.67712 0.285127
1330 1 0.272918 0.693219 0.240601
1710 1 0.365835 0.673576 0.259827
1295 1 0.63239 0.692732 0.256942
276 1 0.781199 0.672626 0.263836
548 1 0.942871 0.707058 0.263302
732 1 0.093403 0.735296 0.261691
1463 1 0.312966 0.753615 0.247472
1580 1 0.99481 0.752068 0.283185
947 1 0.64456 0.789193 0.276956
1903 1 0.716232 0.77479 0.267344
333 1 0.782732 0.803452 0.250144
1103 1 0.933989 0.803791 0.247127
375 1 0.164881 0.827032 0.257262
343 1 0.250527 0.840619 0.240059
1079 1 0.372647 0.828709 0.244861
1738 1 0.301361 0.902254 0.281976
504 1 0.421222 0.890858 0.25858
1784 1 0.607836 0.875762 0.274523
1805 1 0.843435 0.896203 0.281069
1536 1 0.924691 0.874395 0.247498
986 1 0.177724 0.946267 0.263673
1792 1 0.659183 0.937213 0.254731
795 1 0.790115 0.944694 0.264052
1398 1 0.958428 0.94138 0.260328
1757 1 0.340924 0.967435 0.278757
198 1 0.718837 0.96537 0.239873
476 1 0.032673 0.0201566 0.287629
974 1 0.343154 0.0339212 0.332776
1549 1 0.393708 0.0431602 0.288656
47 1 0.474081 0.0158936 0.320272
742 1 0.543747 0.00367038 0.306419
1670 1 0.646448 0.0439441 0.293797
341 1 0.949612 0.0138561 0.292054
323 1 0.537089 0.0751004 0.288488
889 1 0.594045 0.0759371 0.329445
888 1 0.710531 0.0642908 0.330241
1616 1 0.777098 0.0934442 0.314999
1333 1 0.998916 0.0806301 0.296929
1421 1 0.142738 0.136274 0.293502
546 1 0.220678 0.128899 0.317146
897 1 0.327201 0.119362 0.31939
2021 1 0.404346 0.116125 0.309915
2 1 0.84952 0.10402 0.329915
1982 1 0.940023 0.13652 0.294279
614 1 0.0199716 0.150076 0.301376
1584 1 0.274078 0.179521 0.31156
1629 1 0.356348 0.186479 0.313303
1863 1 0.459952 0.171995 0.326333
1910 1 0.600191 0.149556 0.323743
144 1 0.877771 0.178781 0.30917
1707 1 0.0787899 0.21557 0.330768
1204 1 0.22812 0.228289 0.331198
1511 1 0.549764 0.21147 0.315788
915 1 0.661857 0.215952 0.292089
846 1 0.808598 0.215548 0.31003
1050 1 0.438726 0.277275 0.296285
1449 1 0.617073 0.260461 0.32505
1165 1 0.0342928 0.301467 0.292725
1116 1 0.215745 0.327114 0.329857
1402 1 0.286919 0.296362 0.324991
1206 1 0.499511 0.315824 0.304719
127 1 0.704046 0.325841 0.327845
1326 1 0.760587 0.292244 0.290297
1810 1 0.833706 0.294877 0.311765
530 1 0.972314 0.303838 0.33084
1314 1 0.0650974 0.367753 0.310184
1701 1 0.141793 0.337068 0.331912
190 1 0.42761 0.348547 0.296328
1126 1 0.62536 0.33439 0.293843
839 1 0.154837 0.402074 0.294591
1579 1 0.267426 0.383318 0.333323
683 1 0.423772 0.422586 0.302068
644 1 0.504949 0.388287 0.331552
802 1 0.662781 0.389975 0.316335
1202 1 0.764659 0.418827 0.312888
662 1 0.182081 0.472731 0.297461
354 1 0.262661 0.470223 0.302746
886 1 0.3279 0.45445 0.327861
1250 1 0.48128 0.468833 0.314257
792 1 0.540797 0.437456 0.296072
754 1 0.6081 0.435768 0.301439
1447 1 0.997501 0.432986 0.314826
753 1 0.405308 0.497201 0.32833
1232 1 0.553704 0.503763 0.325387
104 1 0.85204 0.494426 0.321817
93 1 0.98294 0.499878 0.293575
2034 1 0.06257 0.526068 0.328613
1600 1 0.663894 0.53797 0.321473
1352 1 0.0186152 0.612204 0.325867
168 1 0.25173 0.597424 0.292142
1349 1 0.402839 0.574912 0.317428
1441 1 0.814564 0.611055 0.296023
1564 1 0.889799 0.574246 0.297635
1194 1 0.36559 0.641112 0.328759
1884 1 0.437068 0.664838 0.296941
1924 1 0.497406 0.631422 0.288521
477 1 0.74005 0.626395 0.310277
911 1 0.866107 0.643411 0.332095
1938 1 0.935927 0.628336 0.296162
867 1 0.19844 0.668881 0.287392
1517 1 0.298285 0.670879 0.321181
1439 1 0.706386 0.708044 0.289527
1445 1 0.844539 0.711179 0.299255
120 1 0.206794 0.737744 0.29432
1766 1 0.410074 0.735787 0.303431
420 1 0.494658 0.714889 0.294544
156 1 0.572986 0.717326 0.291041
816 1 0.142739 0.781396 0.319366
809 1 0.25941 0.794891 0.296267
1653 1 0.530983 0.769518 0.315796
435 1 0.894881 0.763189 0.290737
1282 1 0.0371478 0.816882 0.294308
1290 1 0.0971241 0.850639 0.320619
1469 1 0.331199 0.80999 0.313635
1055 1 0.403227 0.81199 0.312172
273 1 0.48534 0.844872 0.296628
194 1 0.588985 0.814081 0.319711
1875 1 0.735815 0.824901 0.312031
611 1 0.81231 0.824733 0.313669
1291 1 0.676497 0.857896 0.289747
872 1 0.765266 0.887667 0.318756
53 1 0.976182 0.883058 0.329863
1989 1 0.107791 0.934798 0.29377
1228 1 0.211914 0.923992 0.324717
691 1 0.357422 0.913027 0.321532
1153 1 0.551675 0.906982 0.304072
1037 1 0.234238 0.994957 0.314821
2046 1 0.414546 0.969161 0.304596
1612 1 0.496243 0.954106 0.288742
1150 1 0.608237 0.966472 0.293552
1241 1 0.746864 0.992454 0.304105
1608 1 0.866846 0.962126 0.289822
304 1 0.176466 0.010204 0.356754
1185 1 0.779299 0.00280049 0.369121
507 1 0.10537 0.0862356 0.337874
1811 1 0.270716 0.0941611 0.357331
1181 1 0.431577 0.0558638 0.362983
1724 1 0.919559 0.0818823 0.336217
577 1 0.997949 0.0524374 0.365007
1472 1 0.692953 0.13885 0.348481
852 1 0.113245 0.16058 0.362857
542 1 0.758522 0.164721 0.365018
1559 1 0.925359 0.164813 0.360609
413 1 0.409753 0.236095 0.350347
675 1 0.649413 0.192758 0.368778
963 1 0.017773 0.247201 0.355965
1496 1 0.145232 0.265079 0.353817
1292 1 0.32302 0.240226 0.356156
1442 1 0.478106 0.25135 0.352573
1845 1 0.548922 0.244066 0.378299
309 1 0.715371 0.253002 0.362746
900 1 0.913439 0.2588 0.356534
1139 1 0.0674826 0.311725 0.362449
1029 1 0.361166 0.34096 0.374341
1526 1 0.429737 0.374904 0.379904
1965 1 0.575815 0.362639 0.35808
404 1 0.785772 0.352663 0.3578
783 1 0.869211 0.333456 0.36763
975 1 0.19376 0.38563 0.353114
1753 1 0.608782 0.422886 0.375151
1937 1 0.716999 0.39815 0.359611
1255 1 0.872174 0.413954 0.346205
40 1 0.93783 0.390267 0.373645
1035 1 0.100557 0.445854 0.335887
978 1 0.173279 0.452583 0.361917
820 1 0.0239274 0.481943 0.371917
1708 1 0.237059 0.523453 0.35446
321 1 0.308463 0.521926 0.335757
1605 1 0.613315 0.499801 0.367191
356 1 0.755441 0.508567 0.334639
178 1 0.940721 0.483033 0.379199
927 1 0.174597 0.56384 0.350554
862 1 0.482613 0.567186 0.335622
327 1 0.585399 0.565716 0.346426
254 1 0.846036 0.5628 0.363702
124 1 0.963106 0.560119 0.354592
1646 1 0.106297 0.591643 0.353207
9 1 0.648121 0.612558 0.344434
815 1 0.771169 0.615726 0.376818
1660 1 0.119823 0.661924 0.377492
493 1 0.199013 0.640594 0.355636
20 1 0.442195 0.621715 0.356444
1576 1 0.531491 0.654181 0.34402
414 1 0.0535068 0.713054 0.35756
616 1 0.160946 0.709531 0.337187
1419 1 0.4097 0.690243 0.355957
909 1 0.647365 0.683724 0.341596
980 1 0.779778 0.673321 0.3399
116 1 0.879582 0.708656 0.365537
73 1 0.945401 0.682506 0.350205
658 1 0.245993 0.755967 0.359036
643 1 0.317847 0.746099 0.351027
263 1 0.643098 0.754067 0.338714
1911 1 0.73678 0.750023 0.359057
781 1 0.806913 0.753635 0.348377
1880 1 0.926738 0.760028 0.372004
914 1 0.0826442 0.780666 0.365436
1671 1 0.467834 0.785558 0.34425
1042 1 0.868553 0.798016 0.352619
29 1 0.0333807 0.843392 0.362634
1127 1 0.209143 0.831087 0.335475
1264 1 0.282143 0.812205 0.374826
233 1 0.353603 0.838311 0.37304
1074 1 0.652839 0.82653 0.375464
1506 1 0.928348 0.856413 0.375753
587 1 0.484292 0.862156 0.367349
576 1 0.591851 0.876935 0.356066
1279 1 0.677293 0.902819 0.345089
1459 1 0.846867 0.900175 0.354627
1796 1 0.145851 0.92032 0.353607
1373 1 0.434148 0.927437 0.357876
1502 1 0.501535 0.931843 0.375955
1728 1 0.910215 0.921924 0.340223
1076 1 0.101388 0.984009 0.344678
746 1 0.302672 0.954487 0.360027
1820 1 0.375084 0.966445 0.367013
1902 1 0.611615 0.981252 0.36523
928 1 0.688647 0.983891 0.359546
1566 1 0.870584 0.998085 0.379233
1097 1 0.94914 0.99982 0.379973
748 1 0.995332 0.959225 0.336939
1308 1 0.0895989 0.0266556 0.423641
670 1 0.212088 0.0215216 0.422771
633 1 0.286597 0.0283033 0.399428
406 1 0.417039 0.00612372 0.411683
1780 1 0.565658 0.0355183 0.381517
825 1 0.50327 0.0736806 0.381869
959 1 0.68605 0.0777909 0.404679
490 1 0.761689 0.0709359 0.397861
71 1 0.945399 0.0754156 0.414741
1468 1 0.0545996 0.132456 0.393553
812 1 0.121844 0.100998 0.402904
1941 1 0.185719 0.132785 0.411255
1257 1 0.508004 0.142552 0.411034
448 1 0.834799 0.096974 0.396613
426 1 0.260663 0.183608 0.385215
59 1 0.379908 0.157791 0.385591
655 1 0.443776 0.185634 0.407796
1480 1 0.588282 0.148382 0.407592
443 1 0.918654 0.190443 0.426931
869 1 0.988088 0.187776 0.386913
1266 1 0.142703 0.209718 0.421924
1350 1 0.309921 0.209147 0.424842
1397 1 0.377033 0.227796 0.41641
1860 1 0.735037 0.222304 0.422811
607 1 0.812824 0.192738 0.404145
861 1 0.0928641 0.26854 0.419459
1325 1 0.818424 0.262556 0.382966
1433 1 0.205499 0.294511 0.395044
1313 1 0.32992 0.288389 0.41712
1060 1 0.401206 0.322035 0.428365
1049 1 0.483342 0.326937 0.389743
766 1 0.606255 0.298649 0.388171
796 1 0.153012 0.344015 0.406688
1086 1 0.306684 0.376577 0.394606
1922 1 0.535618 0.373019 0.418582
723 1 0.647503 0.363985 0.397321
892 1 0.910504 0.333813 0.426879
1634 1 0.0312918 0.382839 0.391249
1158 1 0.10403 0.387745 0.382177
1260 1 0.205865 0.427226 0.414309
1191 1 0.405829 0.419655 0.426891
703 1 0.475743 0.425161 0.406237
1170 1 0.797273 0.41186 0.394594
1528 1 0.885208 0.410274 0.41864
1265 1 0.0959944 0.466241 0.422388
1732 1 0.287907 0.446715 0.389603
1062 1 0.362003 0.475616 0.39872
160 1 0.539952 0.443641 0.385009
456 1 0.150817 0.514127 0.393777
1053 1 0.46325 0.503234 0.394202
1406 1 0.556406 0.513652 0.402603
1080 1 0.746634 0.477609 0.400732
1374 1 0.846178 0.481258 0.393091
30 1 0.0485652 0.55989 0.395442
1028 1 0.299322 0.534963 0.407355
2044 1 0.408467 0.555309 0.383986
843 1 0.70692 0.555126 0.388794
1017 1 0.785945 0.538177 0.395484
501 1 0.898626 0.52898 0.413089
417 1 0.983831 0.540116 0.420855
1606 1 0.116702 0.571616 0.42653
1947 1 0.274497 0.603411 0.395267
976 1 0.345505 0.598188 0.382775
1219 1 0.532386 0.600523 0.38782
743 1 0.898714 0.600914 0.39661
202 1 0.0508629 0.630299 0.385367
726 1 0.819385 0.652242 0.401567
1848 1 0.958759 0.644218 0.412618
111 1 0.0788538 0.699666 0.418915
2025 1 0.184374 0.69423 0.414973
1968 1 0.266253 0.675716 0.398477
716 1 0.338796 0.679973 0.383852
192 1 0.606061 0.673658 0.402203
1905 1 0.700185 0.70547 0.406228
1467 1 0.320542 0.759285 0.418834
1318 1 0.488826 0.724861 0.385352
680 1 0.971675 0.72045 0.406878
1873 1 0.0163075 0.779355 0.390993
1193 1 0.391801 0.770144 0.382747
1842 1 0.591408 0.776579 0.395207
10 1 0.784194 0.789283 0.42832
780 1 0.166388 0.819688 0.406031
242 1 0.42011 0.838713 0.388813
1254 1 0.547821 0.853351 0.415496
240 1 0.819614 0.843511 0.39207
1831 1 0.956298 0.813375 0.426914
319 1 0.0616628 0.877186 0.418112
933 1 0.248971 0.875493 0.383502
1393 1 0.348323 0.904433 0.414637
1114 1 0.765408 0.901385 0.406386
361 1 0.0969806 0.941902 0.407664
1160 1 0.249226 0.943322 0.407302
756 1 0.642505 0.952052 0.424882
298 1 0.835769 0.932288 0.419461
1997 1 0.920219 0.914287 0.422219
679 1 0.99972 0.923155 0.394445
760 1 0.0329185 0.987028 0.390003
1896 1 0.16621 0.963825 0.411843
1669 1 0.345536 0.000231496 0.429185
1951 1 0.484228 0.0341169 0.438369
794 1 0.6208 0.0105315 0.458488
362 1 0.808985 0.000328074 0.436175
950 1 0.962093 0.00919011 0.45028
374 1 0.00876657 0.0793564 0.449053
1659 1 0.0791386 0.0909062 0.460165
565 1 0.190602 0.0755692 0.46999
1948 1 0.362013 0.080513 0.428883
970 1 0.444224 0.0884966 0.42922
539 1 0.605856 0.0829144 0.438406
786 1 0.726789 0.0493205 0.458868
1273 1 0.816772 0.0912423 0.469935