ITEM: TIMESTEP
100000
ITEM: NUMBER OF ATOMS
2048
ITEM: BOX BOUNDS pp pp pp
0.0000000000000000e+00 1.1635780856594225e+01
0.0000000000000000e+00 1.1635780856594225e+01
0.0000000000000000e+00 1.1635780856594225e+01
ITEM: ATOMS id type xs ys zs
4 1 1.00212 0.0645769 0.0624511
5 1 0.118338 0.00095212 0.00147957
9 1 0.259204 0.00272783 0.00543694
17 1 0.494524 0.0108974 0.998045
21 1 0.627182 0.00747086 0.99811
25 1 0.755007 0.995222 0.00957733
27 1 0.815102 0.993248 0.0703634
2 1 0.0634357 0.0640886 0.991651
14 1 0.432145 0.064286 -0.00128065
20 1 0.49866 0.0697756 0.0655684
18 1 0.564073 0.06965 0.996135
22 1 0.689112 0.0568272 0.996056
26 1 0.815471 0.0669853 0.999379
30 1 0.938335 0.0673232 0.997157
33 1 0.00826026 0.126678 0.993012
49 1 0.494011 0.123105 0.00461457
53 1 0.621728 0.132262 0.989493
57 1 0.749535 0.120254 0.000740776
61 1 0.883701 0.13015 0.988063
38 1 0.189699 0.17975 0.00114901
42 1 0.309991 0.192897 -0.00198365
50 1 0.555991 0.187125 0.994517
54 1 0.694042 0.186591 0.994474
58 1 0.816594 0.196118 -0.000583863
62 1 0.94835 0.190718 0.99318
67 1 0.0680165 0.250342 0.0504691
75 1 0.316789 0.254065 0.0628655
79 1 0.438478 0.257792 0.0578778
93 1 0.884388 0.24415 0.999582
70 1 0.190468 0.314246 0.996383
74 1 0.313034 0.310841 0.991944
78 1 0.44292 0.321369 0.00620044
82 1 0.57043 0.313831 0.00771801
86 1 0.688972 0.312031 0.993379
90 1 0.820404 0.308347 0.00419857
94 1 0.942755 0.321844 0.00633644
107 1 0.306949 0.373249 0.0598983
109 1 0.380867 0.390096 0.00433793
117 1 0.630156 0.371751 1.00161
123 1 0.820567 0.370391 0.0611985
125 1 0.873793 0.376453 0.994404
110 1 0.446506 0.442103 0.998343
114 1 0.566049 0.431869 0.998221
122 1 0.80879 0.435112 0.996308
126 1 0.934468 0.442364 1.00128
133 1 0.126266 0.506234 0.992848
139 1 0.313891 0.498997 0.0666889
143 1 0.440568 0.49222 0.0704322
145 1 0.50894 0.492835 0.988358
149 1 0.63515 0.49756 0.995414
153 1 0.756088 0.499904 0.999747
157 1 0.878265 0.498926 0.993163
140 1 0.249782 0.566511 0.0488767
144 1 0.373084 0.560237 0.0650597
142 1 0.433341 0.566173 1.00055
146 1 0.557673 0.562719 0.00490204
152 1 0.62328 0.556531 0.0621022
154 1 0.817572 0.563732 0.998565
158 1 0.939843 0.566852 0.994464
167 1 0.188645 0.62356 0.0618885
171 1 0.309448 0.624256 0.0655498
177 1 0.501211 0.621731 1.00131
181 1 0.617214 0.621255 -1.26308e-05
185 1 0.748238 0.625525 0.996612
187 1 0.810398 0.619279 0.0583175
191 1 0.936156 0.612158 0.0683437
164 1 0.00179311 0.683243 0.0690759
162 1 0.0570815 0.69277 0.00469614
172 1 0.247021 0.69435 0.0692533
176 1 0.370193 0.691064 0.0669154
178 1 0.559948 0.695589 0.998427
182 1 0.680923 0.686565 0.990037
192 1 0.873684 0.679448 0.0590783
197 1 0.130931 0.744965 1.0015
203 1 0.311051 0.749564 0.0639227
205 1 0.37627 0.756309 0.00197335
209 1 0.501441 0.751545 0.00397381
213 1 0.623805 0.746642 0.00496378
217 1 0.752498 0.747271 0.00984551
204 1 0.256279 0.818274 0.0708469
206 1 0.442491 0.810888 0.005711
224 1 0.877049 0.808133 0.0654097
196 1 0.000918443 0.818506 0.0622881
231 1 0.185813 0.876156 0.0635071
235 1 0.319482 0.875553 0.069726
241 1 0.495323 0.873927 0.994256
243 1 0.567113 0.879003 0.055864
238 1 0.441668 0.942665 0.00362387
248 1 0.622646 0.945464 0.0550326
247 1 0.688404 0.873182 0.065231
252 1 0.751774 0.934266 0.0685434
250 1 0.816313 0.938496 0.00754043
256 1 0.877713 0.939237 0.0634754
254 1 0.934556 0.937938 1.00319
226 1 0.0559874 0.940429 0.00267807
230 1 0.191495 0.950894 0.000521921
13 1 0.372107 0.994964 0.00300895
3 1 0.0660264 0.997313 0.0670333
11 1 0.316824 0.994044 0.0694615
19 1 0.560518 0.0144665 0.0574404
23 1 0.687505 0.00600941 0.0597556
8 1 0.133855 0.0709528 0.0667377
12 1 0.260915 0.0625807 0.0656722
16 1 0.375491 0.061186 0.0569456
24 1 0.631445 0.074097 0.0614736
28 1 0.754254 0.0691592 0.0604544
32 1 0.87819 0.068357 0.0675281
35 1 0.0624226 0.125089 0.0565513
40 1 0.131357 0.187985 0.0587341
39 1 0.197031 0.130816 0.0695391
43 1 0.320328 0.122383 0.0598905
47 1 0.432011 0.124519 0.0633094
51 1 0.561894 0.127239 0.0580348
55 1 0.689789 0.129912 0.0624458
59 1 0.809853 0.128571 0.0648853
63 1 0.940596 0.132299 0.0547044
36 1 0.00437221 0.19296 0.0520323
44 1 0.249539 0.196307 0.0561282
48 1 0.377787 0.188935 0.0664038
52 1 0.498073 0.195055 0.0587086
56 1 0.628384 0.185525 0.0548555
60 1 0.748934 0.191244 0.0518097
64 1 0.875235 0.185553 0.0579116
325 1 0.123761 0.253941 0.123768
71 1 0.184329 0.257336 0.0618519
83 1 0.553068 0.256386 0.0622138
87 1 0.673522 0.253659 0.0560031
91 1 0.817502 0.249128 0.0676935
95 1 0.935323 0.259363 0.061133
72 1 0.124894 0.313885 0.0539164
76 1 0.2542 0.312457 0.0609044
80 1 0.373333 0.313815 0.0629127
84 1 0.498962 0.322365 0.0736859
88 1 0.627255 0.320585 0.0710259
92 1 0.756926 0.313093 0.0544545
96 1 0.876701 0.31131 0.0678409
68 1 1.00055 0.316067 0.0674505
99 1 0.0654432 0.37648 0.0658469
103 1 0.185675 0.382466 0.0622885
111 1 0.447616 0.383097 0.0681489
115 1 0.558332 0.378638 0.0712374
119 1 0.689555 0.373867 0.0534136
127 1 0.945849 0.384994 0.0614499
104 1 0.130185 0.448073 0.0634915
108 1 0.246141 0.4349 0.0663653
112 1 0.369781 0.436037 0.0712786
116 1 0.503668 0.443877 0.0584248
120 1 0.63326 0.439345 0.0527039
124 1 0.749695 0.433705 0.0562748
128 1 0.872853 0.433436 0.0566385
100 1 0.00482591 0.444947 0.0602087
131 1 0.0670077 0.507282 0.0652154
135 1 0.194332 0.503185 0.0521291
401 1 0.49829 0.497647 0.128249
147 1 0.560265 0.500607 0.0606473
151 1 0.692357 0.503205 0.0672322
155 1 0.819915 0.500566 0.0536795
159 1 0.934258 0.500382 0.0589295
132 1 1.00094 0.556774 0.0605914
136 1 0.125131 0.56732 0.0657941
394 1 0.307663 0.557777 0.13364
148 1 0.493988 0.558338 0.0665165
156 1 0.75395 0.559705 0.0576648
160 1 0.871973 0.559958 0.0634048
163 1 0.0616276 0.626816 0.059866
425 1 0.254157 0.621524 0.120572
175 1 0.43566 0.628349 0.0687322
179 1 0.562774 0.621904 0.0663756
183 1 0.684805 0.624487 0.0553562
168 1 0.124685 0.69037 0.0661775
422 1 0.193549 0.687167 0.132151
426 1 0.314808 0.684232 0.123851
180 1 0.505518 0.6794 0.0696714
184 1 0.624902 0.682774 0.0596109
188 1 0.743899 0.688377 0.0639784
195 1 0.0602736 0.754999 0.0706492
199 1 0.190494 0.753969 0.0624271
207 1 0.435722 0.74293 0.0675808
211 1 0.566603 0.747982 0.0659387
215 1 0.691042 0.754393 0.0625584
219 1 0.81216 0.745286 0.0668699
223 1 0.942929 0.738472 0.0580764
200 1 0.123513 0.816175 0.0507615
208 1 0.374421 0.808302 0.0706411
212 1 0.50472 0.817103 0.0592778
216 1 0.626419 0.816029 0.062691
220 1 0.750939 0.811091 0.0641815
474 1 0.811958 0.808909 0.121609
239 1 0.446262 0.877469 0.0633511
251 1 0.815933 0.87793 0.063747
509 1 0.872717 0.871369 0.121908
255 1 0.938427 0.872186 0.0605394
227 1 0.0636672 0.877974 0.0549187
232 1 0.136611 0.945522 0.0666492
236 1 0.2557 0.931501 0.059223
240 1 0.372799 0.939989 0.0696211
506 1 0.809851 0.935752 0.126147
228 1 0.999282 0.940269 0.0651245
7 1 0.193415 0.00660111 0.0680191
15 1 0.44108 0.00309171 0.0657642
244 1 0.506064 0.933616 0.0665728
285 1 0.87552 0.00682104 0.125486
31 1 0.936226 0.00788486 0.0717048
258 1 0.065133 0.0675058 0.122087
265 1 0.253362 0.00178975 0.126608
273 1 0.504548 0.00184521 0.122327
278 1 0.696536 0.0697285 0.122665
262 1 0.194591 0.0691933 0.127745
266 1 0.318962 0.068436 0.119154
270 1 0.438587 0.0665646 0.126184
274 1 0.566143 0.0654592 0.122329
282 1 0.813043 0.0544585 0.123826
286 1 0.940848 0.0739315 0.136596
293 1 0.131432 0.129979 0.125716
297 1 0.260691 0.133238 0.118916
301 1 0.373256 0.124198 0.127326
305 1 0.502792 0.127728 0.127854
309 1 0.632241 0.13315 0.123864
313 1 0.753617 0.137191 0.122782
317 1 0.876721 0.123602 0.130188
289 1 0.00637843 0.137518 0.119381
290 1 0.0687946 0.194719 0.116935
294 1 0.185795 0.194782 0.121543
298 1 0.320587 0.190001 0.129484
302 1 0.43884 0.190741 0.122276
306 1 0.564816 0.183253 0.12955
310 1 0.690603 0.190996 0.119407
314 1 0.820377 0.186657 0.120504
318 1 0.932972 0.185399 0.126711
321 1 0.00676014 0.249019 0.111169
329 1 0.254632 0.248324 0.122644
333 1 0.379377 0.246965 0.124407
337 1 0.495687 0.253547 0.12518
341 1 0.620668 0.251949 0.127373
345 1 0.760222 0.243328 0.127545
349 1 0.875575 0.255802 0.128732
322 1 0.0685687 0.314388 0.118072
326 1 0.19057 0.311861 0.128435
330 1 0.314877 0.317539 0.120555
334 1 0.430759 0.315119 0.120791
338 1 0.55933 0.311729 0.128491
342 1 0.70129 0.311808 0.114943
346 1 0.804137 0.317999 0.124698
350 1 0.936253 0.308589 0.126821
357 1 0.125769 0.371678 0.117634
361 1 0.246222 0.374426 0.12268
365 1 0.377386 0.372714 0.122299
369 1 0.501142 0.381234 0.129972
373 1 0.631165 0.384493 0.121985
377 1 0.749824 0.379437 0.122667
381 1 0.882736 0.37697 0.119706
353 1 0.00515428 0.380926 0.122877
354 1 0.066056 0.44131 0.130114
358 1 0.18575 0.441652 0.127844
362 1 0.308569 0.437366 0.127094
366 1 0.430509 0.436489 0.130498
370 1 0.560317 0.443555 0.127046
374 1 0.692269 0.439525 0.122996
378 1 0.812398 0.431084 0.116942
382 1 0.936537 0.442616 0.121853
385 1 0.00412509 0.499242 0.124733
389 1 0.130794 0.503276 0.131354
393 1 0.248352 0.494079 0.121063
397 1 0.373869 0.498961 0.131828
405 1 0.627391 0.492602 0.120721
409 1 0.749312 0.496612 0.127971
413 1 0.870137 0.498447 0.120418
386 1 0.0685859 0.566365 0.126746
390 1 0.197621 0.559515 0.116575
398 1 0.429896 0.558288 0.130228
402 1 0.570018 0.555792 0.142627
406 1 0.685946 0.56382 0.119047
410 1 0.805533 0.557553 0.131644
414 1 0.934678 0.551878 0.130836
417 1 0.00195362 0.621021 0.130045
421 1 0.130637 0.632356 0.126386
429 1 0.372338 0.620225 0.125222
433 1 0.49512 0.612507 0.136381
437 1 0.62394 0.617926 0.12714
441 1 0.745789 0.622265 0.118613
445 1 0.862596 0.620822 0.12046
418 1 0.0634912 0.681784 0.124917
430 1 0.445338 0.677696 0.133294
434 1 0.568361 0.683329 0.124159
438 1 0.681618 0.686092 0.123088
442 1 0.810353 0.685687 0.121457
446 1 0.931756 0.679914 0.11876
453 1 0.126859 0.756464 0.117047
457 1 0.257022 0.752251 0.128757
461 1 0.373905 0.747395 0.128651
465 1 0.500532 0.742689 0.120315
469 1 0.625947 0.750918 0.121737
473 1 0.754869 0.751978 0.132761
477 1 0.873164 0.743098 0.121149
449 1 0.997964 0.7549 0.125148
450 1 0.0728327 0.821268 0.115827
454 1 0.186644 0.816721 0.125656
458 1 0.313024 0.815145 0.131096
462 1 0.439684 0.804977 0.125294
466 1 0.566402 0.810532 0.120892
470 1 0.691009 0.805741 0.128198
478 1 0.939466 0.82163 0.126465
485 1 0.134013 0.879552 0.136752
489 1 0.251892 0.880764 0.122978
493 1 0.379753 0.875293 0.130036
497 1 0.507758 0.872625 0.123055
505 1 0.745636 0.871171 0.13144
481 1 0.00655566 0.879753 0.129921
482 1 0.0717895 0.934073 0.125766
486 1 0.193251 0.938017 0.124681
490 1 0.313917 0.938445 0.127592
494 1 0.444337 0.932172 0.12463
498 1 0.563467 0.940722 0.124938
501 1 0.627801 0.871311 0.13079
502 1 0.68712 0.940903 0.116071
510 1 0.938881 0.939988 0.127715
261 1 0.124566 0.00694669 0.128437
269 1 0.375653 -0.000423557 0.125915
277 1 0.625023 -0.00290851 0.12292
281 1 0.74938 0.00176387 0.12231
257 1 0.992171 0.0043615 0.132989
259 1 0.0635789 0.997466 0.187281
267 1 0.313012 -0.00047732 0.185919
271 1 0.438963 0.99858 0.181474
275 1 0.563377 0.000776431 0.181577
283 1 0.8098 -0.00134465 0.186702
287 1 0.932321 0.996225 0.18757
260 1 0.00588939 0.0747737 0.181452
264 1 0.134164 0.0732266 0.183886
268 1 0.257083 0.0649482 0.187903
272 1 0.367689 0.0593206 0.190347
276 1 0.507622 0.063906 0.184405
280 1 0.632333 0.0654442 0.17715
284 1 0.75365 0.0693208 0.183746
288 1 0.875149 0.0647597 0.191061
291 1 0.0695502 0.126017 0.186652
295 1 0.19525 0.138281 0.181248
299 1 0.315876 0.130346 0.192442
303 1 0.442933 0.123086 0.187518
307 1 0.570417 0.122525 0.190327
311 1 0.689378 0.127396 0.186633
315 1 0.815488 0.126287 0.18727
319 1 0.936698 0.12694 0.193381
292 1 2.87016e-05 0.183563 0.183962
296 1 0.128488 0.193556 0.18914
300 1 0.251156 0.19693 0.189874
304 1 0.382441 0.182979 0.187677
308 1 0.499168 0.184981 0.185785
312 1 0.636597 0.192451 0.183209
316 1 0.752445 0.188972 0.189964
320 1 0.872745 0.186379 0.193515
323 1 0.0626483 0.248906 0.18921
327 1 0.191254 0.253445 0.188245
331 1 0.31683 0.247603 0.194624
335 1 0.434094 0.249236 0.186118
339 1 0.555363 0.249409 0.182839
343 1 0.6896 0.251646 0.180991
347 1 0.815105 0.258727 0.189876
351 1 0.929224 0.245956 0.187143
328 1 0.126147 0.31443 0.185514
332 1 0.250467 0.311324 0.199885
336 1 0.37764 0.311657 0.189471
340 1 0.499605 0.305231 0.191117
344 1 0.622298 0.305578 0.190754
348 1 0.752873 0.310459 0.18368
352 1 0.880675 0.315028 0.188599
324 1 0.0109251 0.314648 0.181402
355 1 0.0693334 0.377266 0.193402
359 1 0.18653 0.374278 0.187424
363 1 0.310772 0.371478 0.191175
367 1 0.434232 0.376809 0.189521
371 1 0.562951 0.37322 0.187241
375 1 0.694074 0.372579 0.18757
379 1 0.811967 0.379237 0.183581
383 1 0.937306 0.373209 0.185113
360 1 0.124332 0.441625 0.19677
364 1 0.245608 0.430725 0.192964
368 1 0.370316 0.438489 0.18805
372 1 0.496661 0.434218 0.189541
376 1 0.625091 0.433639 0.187888
380 1 0.748282 0.436052 0.189965
384 1 0.876162 0.43631 0.186803
356 1 0.00642237 0.434399 0.190358
387 1 0.0648297 0.498782 0.194828
391 1 0.186291 0.493133 0.19808
395 1 0.305696 0.491223 0.19202
399 1 0.43565 0.491555 0.191441
403 1 0.568196 0.495063 0.197212
407 1 0.687267 0.488964 0.190791
411 1 0.80752 0.498782 0.197982
415 1 0.935202 0.494857 0.19248
388 1 0.991601 0.558379 0.187147
392 1 0.126298 0.567973 0.190154
396 1 0.245177 0.556377 0.190768
400 1 0.36651 0.555677 0.190612
404 1 0.495577 0.552091 0.191124
408 1 0.634964 0.555085 0.187339
412 1 0.743465 0.557117 0.186744
416 1 0.869823 0.558048 0.190405
419 1 0.0596133 0.620817 0.19085
423 1 0.194496 0.62318 0.183761
427 1 0.314789 0.622087 0.191171
431 1 0.440265 0.624632 0.195479
435 1 0.563017 0.626864 0.187606
439 1 0.691335 0.62488 0.181756
443 1 0.806626 0.61932 0.194736
447 1 0.939385 0.626156 0.191913
424 1 0.125624 0.689071 0.187327
428 1 0.255502 0.681106 0.187321
432 1 0.375227 0.68237 0.180294
436 1 0.504894 0.689099 0.191616
440 1 0.621552 0.684322 0.187313
444 1 0.74481 0.685908 0.186108
448 1 0.870134 0.671968 0.181217
420 1 1.00326 0.688107 0.187572
451 1 0.067176 0.748748 0.174922
455 1 0.186728 0.745196 0.189687
459 1 0.314317 0.746717 0.188565
463 1 0.441161 0.741862 0.180684
467 1 0.560439 0.748297 0.182231
471 1 0.679271 0.740967 0.183975
475 1 0.826956 0.748646 0.188193
479 1 0.931215 0.736856 0.177575
452 1 0.99709 0.809089 0.188283
456 1 0.12998 0.810881 0.1874
460 1 0.246928 0.811302 0.18485
464 1 0.379621 0.81096 0.182854
468 1 0.502381 0.806914 0.18124
472 1 0.624301 0.80914 0.189062
476 1 0.74979 0.809956 0.190568
480 1 0.875745 0.81282 0.184591
483 1 0.0697237 0.875084 0.18695
487 1 0.188161 0.868764 0.192206
491 1 0.318826 0.880145 0.186427
495 1 0.437437 0.870812 0.18478
499 1 0.560652 0.881276 0.185289
503 1 0.689701 0.868476 0.187784
511 1 0.938499 0.882112 0.182421
488 1 0.127533 0.938839 0.192512
496 1 0.377918 0.941908 0.178112
500 1 0.502756 0.936872 0.185673
504 1 0.639567 0.934076 0.185604
507 1 0.817183 0.868389 0.184199
512 1 0.872579 0.932096 0.18635
484 1 0.996695 0.941024 0.187528
263 1 0.183034 -0.00354392 0.18391
492 1 0.252772 0.946431 0.188916
279 1 0.687279 0.00330475 0.178126
508 1 0.750454 0.941067 0.182646
513 1 0.00330102 0.00964928 0.238637
517 1 0.127813 0.00406835 0.243548
521 1 0.259316 0.00360477 0.256131
529 1 0.501592 0.00645172 0.242686
534 1 0.691674 0.0648253 0.237459
537 1 0.751892 0.00391559 0.247933
514 1 0.0643016 0.0660028 0.2468
518 1 0.199605 0.0565582 0.246543
522 1 0.311604 0.064006 0.252859
526 1 0.439121 0.0631303 0.245843
530 1 0.572263 0.0580268 0.242772
538 1 0.807974 0.0720757 0.247962
542 1 0.937724 0.0596735 0.244454
545 1 0.995873 0.121275 0.247851
549 1 0.132848 0.131681 0.26086
553 1 0.251069 0.12998 0.250691
557 1 0.370938 0.129832 0.250318
561 1 0.504721 0.122459 0.242489
565 1 0.623676 0.128325 0.251229
569 1 0.745204 0.124255 0.248036
573 1 0.873128 0.123417 0.256032
546 1 0.0537407 0.182206 0.248488
550 1 0.189776 0.189499 0.255626
554 1 0.313269 0.189179 0.253047
558 1 0.441597 0.176814 0.247155
562 1 0.565734 0.18368 0.246698
566 1 0.692026 0.185262 0.25277
570 1 0.807093 0.185958 0.253797
574 1 0.942163 0.190242 0.254141
581 1 0.115044 0.2433 0.254849
585 1 0.256274 0.251172 0.255306
589 1 0.378921 0.240487 0.254768
593 1 0.496273 0.243615 0.248407
597 1 0.623737 0.249317 0.251453
601 1 0.749423 0.252114 0.247102
605 1 0.872581 0.254047 0.252016
577 1 -0.00096245 0.244544 0.240335
578 1 0.0627993 0.318462 0.250287
582 1 0.18484 0.323402 0.251881
586 1 0.322783 0.304195 0.259983
590 1 0.435915 0.316171 0.249228
594 1 0.561816 0.316808 0.24632
598 1 0.687321 0.306268 0.244335
602 1 0.804535 0.322003 0.251569
606 1 0.938637 0.313521 0.247327
613 1 0.122353 0.379113 0.255372
617 1 0.253928 0.366551 0.256487
621 1 0.374255 0.372663 0.247729
625 1 0.499259 0.370935 0.244481
629 1 0.627056 0.371787 0.241251
633 1 0.747992 0.376532 0.249575
637 1 0.882483 0.373056 0.248283
609 1 0.00333354 0.375409 0.251477
610 1 0.0645498 0.440692 0.25256
614 1 0.190862 0.437303 0.260391
618 1 0.314056 0.430178 0.246843
622 1 0.436302 0.432006 0.247457
626 1 0.572688 0.429465 0.247456
630 1 0.687167 0.438765 0.257142
634 1 0.812709 0.432461 0.247954
638 1 0.942575 0.433088 0.247307
641 1 1.00223 0.4931 0.248711
645 1 0.12395 0.50464 0.254287
649 1 0.251756 0.494649 0.255752
653 1 0.363592 0.501827 0.254161
657 1 0.503998 0.498032 0.25373
661 1 0.622585 0.497825 0.258075
665 1 0.747527 0.495949 0.25415
669 1 0.875118 0.494663 0.253861
642 1 0.059989 0.560892 0.253211
646 1 0.189751 0.559163 0.248762
650 1 0.305909 0.560159 0.247211
654 1 0.438834 0.556526 0.253502
658 1 0.570001 0.563045 0.243694
662 1 0.68264 0.558827 0.255306
666 1 0.813978 0.562924 0.25082
670 1 0.937015 0.561876 0.247441
677 1 0.126139 0.627166 0.254021
681 1 0.254154 0.62094 0.247334
685 1 0.377683 0.614044 0.250498
689 1 0.501202 0.631167 0.253596
693 1 0.62589 0.625124 0.246772
697 1 0.745613 0.620639 0.259196
701 1 0.873454 0.629116 0.257068
673 1 0.00250381 0.624957 0.246876
674 1 0.0665025 0.689002 0.246707
678 1 0.189186 0.683958 0.252083
682 1 0.310915 0.686414 0.245935
686 1 0.438629 0.683565 0.250301
690 1 0.564115 0.683985 0.249978
694 1 0.691143 0.681817 0.245463
698 1 0.801843 0.687282 0.250934
702 1 0.932393 0.69067 0.243894
705 1 0.00353965 0.747655 0.24919
709 1 0.125734 0.748554 0.247122
713 1 0.250903 0.743771 0.247277
717 1 0.370083 0.753901 0.250261
721 1 0.507399 0.750362 0.246816
725 1 0.617425 0.747811 0.243839
729 1 0.734569 0.753086 0.248123
733 1 0.874009 0.753014 0.262933
706 1 0.0528469 0.81734 0.255033
710 1 0.192896 0.811758 0.258188
714 1 0.318462 0.823994 0.251967
718 1 0.440938 0.808959 0.24995
722 1 0.563428 0.814775 0.247265
726 1 0.688534 0.818096 0.256236
730 1 0.81098 0.821074 0.249232
734 1 0.931134 0.809787 0.244536
741 1 0.12488 0.867431 0.247416
745 1 0.253512 0.87203 0.250795
749 1 0.381472 0.880683 0.245077
753 1 0.500111 0.873296 0.242418
757 1 0.624336 0.873891 0.242071
761 1 0.753189 0.878382 0.242371
765 1 0.870161 0.880256 0.24735
737 1 0.990859 0.877485 0.242035
738 1 0.0621352 0.93311 0.245096
742 1 0.192177 0.945731 0.248851
746 1 0.310876 0.931715 0.255927
750 1 0.437634 0.940666 0.244293
754 1 0.563859 0.940745 0.242436
758 1 0.687693 0.922974 0.249134
762 1 0.811208 0.939285 0.255204
766 1 0.932306 0.936395 0.248923
525 1 0.374557 0.995594 0.24724
533 1 0.627144 -0.00208591 0.241804
541 1 0.867538 0.00691361 0.255561
519 1 0.18359 0.00373057 0.319894
524 1 0.253845 0.0626368 0.316732
527 1 0.445738 0.0105186 0.309213
532 1 0.50648 0.0711301 0.313851
535 1 0.693409 0.00155266 0.311925
539 1 0.807087 0.0045922 0.310732
543 1 0.946026 0.00260575 0.303983
516 1 0.00102195 0.0631659 0.310188
520 1 0.123012 0.0673018 0.316204
528 1 0.382577 0.0619571 0.310867
536 1 0.632595 0.0623661 0.317655
540 1 0.754386 0.0639052 0.30898
544 1 0.875661 0.0624302 0.314081
547 1 0.0641738 0.124485 0.311636
551 1 0.187243 0.118539 0.316854
555 1 0.319318 0.123408 0.322109
559 1 0.437553 0.12559 0.312266
563 1 0.567373 0.12625 0.315323
567 1 0.692051 0.116841 0.309572
571 1 0.813625 0.127454 0.314761
575 1 0.934659 0.127889 0.309627
552 1 0.122386 0.190191 0.318209
556 1 0.25523 0.184208 0.313537
560 1 0.372701 0.187567 0.318892
564 1 0.499642 0.183768 0.309949
568 1 0.629355 0.184961 0.313951
572 1 0.745978 0.194811 0.313931
576 1 0.880461 0.191139 0.314419
548 1 0.00179601 0.18529 0.3172
579 1 0.0526667 0.248999 0.312858
583 1 0.186226 0.251356 0.312656
587 1 0.309493 0.248002 0.323818
591 1 0.441429 0.253469 0.313561
595 1 0.562025 0.243946 0.308046
599 1 0.685565 0.254131 0.315263
603 1 0.799949 0.25615 0.312707
607 1 0.941338 0.253619 0.308215
584 1 0.127832 0.309969 0.315802
588 1 0.253671 0.311272 0.314326
592 1 0.384869 0.314551 0.313375
596 1 0.503904 0.314755 0.310738
600 1 0.624806 0.309447 0.312018
604 1 0.742476 0.316442 0.310653
608 1 0.872193 0.314836 0.315856
580 1 1.00055 0.310973 0.311501
611 1 0.0634341 0.375672 0.311824
615 1 0.190641 0.374464 0.321717
619 1 0.315722 0.371093 0.314326
623 1 0.439031 0.375266 0.306375
627 1 0.555586 0.372973 0.311151
631 1 0.679951 0.369785 0.302003
635 1 0.813126 0.376091 0.315542
639 1 0.935314 0.37778 0.312999
612 1 0.998895 0.438487 0.315931
616 1 0.123809 0.43532 0.310787
620 1 0.257736 0.436038 0.31274
624 1 0.374335 0.429018 0.30878
628 1 0.498198 0.434762 0.309212
632 1 0.619657 0.439902 0.321127
636 1 0.751187 0.437298 0.312257
640 1 0.881881 0.44094 0.317178
643 1 0.060659 0.499275 0.310967
647 1 0.188299 0.505843 0.312107
651 1 0.312343 0.499871 0.320263
655 1 0.438381 0.495391 0.310926
659 1 0.561771 0.504613 0.315177
663 1 0.683821 0.498399 0.318213
667 1 0.810647 0.502993 0.315182
671 1 0.94027 0.506164 0.305553
644 1 -0.00145526 0.560071 0.309749
648 1 0.125172 0.565097 0.310516
652 1 0.250631 0.5547 0.310582
656 1 0.377775 0.558081 0.314388
660 1 0.504444 0.566022 0.308454
664 1 0.621777 0.562916 0.315018
668 1 0.746901 0.562372 0.316445
672 1 0.877694 0.56173 0.311528
675 1 0.0562319 0.618014 0.312389
679 1 0.190771 0.620811 0.307486
683 1 0.314054 0.617936 0.316129
687 1 0.441935 0.622235 0.31222
691 1 0.564885 0.625034 0.312747
695 1 0.680572 0.626636 0.315651
699 1 0.807763 0.627036 0.311414
703 1 0.938814 0.621139 0.308011
680 1 0.128697 0.688335 0.308419
684 1 0.250584 0.682788 0.309593
688 1 0.378596 0.679732 0.30972
692 1 0.504431 0.686801 0.31231
696 1 0.612335 0.690713 0.321089
700 1 0.74085 0.690261 0.311359
704 1 0.867944 0.692935 0.316407
676 1 0.989837 0.689818 0.315301
707 1 0.0713856 0.750043 0.310275
711 1 0.192747 0.744639 0.314155
715 1 0.309679 0.742618 0.309871
719 1 0.441558 0.74653 0.317045
723 1 0.55975 0.755522 0.308139
727 1 0.676621 0.743476 0.306744
731 1 0.801528 0.752763 0.308496
735 1 0.938898 0.752186 0.308401
708 1 0.988047 0.821353 0.308065
712 1 0.129424 0.816839 0.312871
716 1 0.253545 0.81293 0.321598
720 1 0.384468 0.809359 0.309526
724 1 0.503941 0.813053 0.310433
728 1 0.62234 0.808445 0.306599
732 1 0.753915 0.820536 0.308069
736 1 0.872757 0.821251 0.306717
739 1 0.0709416 0.88099 0.3105
743 1 0.180213 0.882158 0.308498
747 1 0.330288 0.877757 0.319704
751 1 0.437511 0.877522 0.307254
755 1 0.561458 0.870012 0.305988
759 1 0.682423 0.874002 0.32242
763 1 0.814331 0.879219 0.3111
767 1 0.937966 0.886618 0.307918
740 1 0.00173665 0.940947 0.305558
744 1 0.12502 0.948658 0.304469
748 1 0.256895 0.936254 0.321772
752 1 0.382479 0.938825 0.310205
756 1 0.495152 0.938467 0.305376
760 1 0.623895 0.935066 0.304396
764 1 0.751271 0.941592 0.321249
768 1 0.871899 0.937215 0.309847
515 1 0.0602615 0.00614434 0.309509
523 1 0.319073 0.99542 0.317511
531 1 0.553375 0.000526935 0.310257
778 1 0.313286 0.0605172 0.380045
789 1 0.617458 0.991577 0.365527
797 1 0.867612 1.00062 0.373937
770 1 0.0612556 0.066356 0.374027
774 1 0.185497 0.0615949 0.379108
782 1 0.442728 0.0632877 0.375392
786 1 0.561268 0.0649206 0.3847
790 1 0.692703 0.055447 0.376408
794 1 0.815617 0.069863 0.373595
798 1 0.936264 0.0599733 0.371823
805 1 0.12487 0.127823 0.381775
809 1 0.251651 0.125984 0.376184
813 1 0.381151 0.11659 0.384512
817 1 0.49855 0.129011 0.372204
821 1 0.625804 0.120328 0.37612
825 1 0.748225 0.127629 0.381349
829 1 0.871156 0.124173 0.380714
801 1 0.996361 0.122113 0.375556
802 1 0.0627038 0.187714 0.377377
806 1 0.19297 0.184735 0.370192
810 1 0.305859 0.189587 0.380107
814 1 0.439016 0.186726 0.376938
818 1 0.564062 0.18228 0.372965
822 1 0.683639 0.185182 0.37914
826 1 0.816929 0.181894 0.380916
830 1 0.937203 0.181775 0.378297
837 1 0.123755 0.252608 0.381694
841 1 0.241439 0.258287 0.377013
845 1 0.378135 0.253611 0.383739
849 1 0.502442 0.246894 0.365763
853 1 0.62035 0.249707 0.37862
857 1 0.740257 0.251518 0.375891
861 1 0.869543 0.254125 0.377786
833 1 0.997736 0.242421 0.37531
834 1 0.060384 0.305155 0.369814
838 1 0.184244 0.314357 0.379536
842 1 0.314169 0.311085 0.378333
846 1 0.439929 0.310284 0.376938
850 1 0.561879 0.316309 0.37188
854 1 0.679147 0.322282 0.377216
858 1 0.806959 0.315147 0.370591
862 1 0.936761 0.307141 0.371781
865 1 0.991288 0.367009 0.370952
869 1 0.123914 0.374496 0.371937
873 1 0.249747 0.366836 0.378528
877 1 0.371755 0.373241 0.36963
881 1 0.50008 0.374937 0.377475
885 1 0.616162 0.376977 0.374182
889 1 0.743392 0.376839 0.368196
893 1 0.875397 0.375845 0.369852
866 1 0.0653569 0.441988 0.371027
870 1 0.190878 0.443009 0.375529
874 1 0.318527 0.435931 0.373737
878 1 0.443602 0.432987 0.370548
882 1 0.556494 0.442107 0.381651
886 1 0.680603 0.437759 0.376231
890 1 0.812149 0.434429 0.376498
894 1 0.943405 0.439655 0.377793
897 1 0.00229403 0.499498 0.374143
901 1 0.125381 0.495683 0.366053
905 1 0.250974 0.503073 0.376036
909 1 0.375798 0.491929 0.377359
913 1 0.498623 0.50088 0.374983
917 1 0.61711 0.500076 0.380038
921 1 0.748464 0.493786 0.369089
925 1 0.88509 0.5032 0.377985
898 1 0.06397 0.559022 0.374219
902 1 0.19071 0.562263 0.372453
906 1 0.324074 0.559073 0.381162
910 1 0.433792 0.555212 0.377545
914 1 0.557082 0.559852 0.371502
918 1 0.680833 0.559577 0.376805
922 1 0.818039 0.557806 0.372492
926 1 0.947655 0.568029 0.379981
933 1 0.115752 0.635964 0.37307
937 1 0.246372 0.623668 0.373638
941 1 0.381317 0.627233 0.376572
945 1 0.495067 0.617708 0.379836
949 1 0.619369 0.625719 0.377632
953 1 0.740096 0.62179 0.374673
957 1 0.873682 0.627754 0.36599
929 1 1.00049 0.635232 0.370734
930 1 0.0584855 0.697281 0.374103
934 1 0.183982 0.684108 0.374963
938 1 0.310133 0.686939 0.377711
942 1 0.442458 0.68397 0.373182
946 1 0.554068 0.683329 0.379091
950 1 0.678684 0.686482 0.373863
954 1 0.805196 0.698014 0.371751
958 1 0.933593 0.692789 0.374172
961 1 0.996569 0.757763 0.365646
965 1 0.130887 0.7426 0.369997
969 1 0.252492 0.751409 0.37813
973 1 0.375424 0.738884 0.366124
977 1 0.500513 0.75076 0.380457
981 1 0.61197 0.749439 0.378039
985 1 0.744137 0.750069 0.376514
989 1 0.877139 0.756341 0.375371
962 1 0.0590678 0.817337 0.360398
966 1 0.188464 0.805236 0.372254
970 1 0.319928 0.812054 0.375112
974 1 0.446794 0.81636 0.375026
978 1 0.555153 0.808326 0.37634
982 1 0.683087 0.811895 0.374262
986 1 0.812957 0.810816 0.376182
990 1 0.936631 0.823142 0.374146
993 1 0.995273 0.881808 0.367138
997 1 0.133753 0.871492 0.377431
1001 1 0.250912 0.875355 0.375738
1005 1 0.387632 0.874119 0.37983
1009 1 0.49903 0.87768 0.361444
1013 1 0.618207 0.873014 0.373935
1017 1 0.752657 0.869611 0.37055
1021 1 0.872791 0.872881 0.372632
994 1 0.0586357 0.941306 0.376165
998 1 0.189113 0.938479 0.373321
1006 1 0.437436 0.945445 0.370875
1010 1 0.557859 0.930808 0.364169
1014 1 0.678552 0.942329 0.373533
1018 1 0.8143 0.935442 0.374732
1022 1 0.929538 0.938039 0.374448
773 1 0.122711 0.002313 0.382063
777 1 0.24952 0.0032812 0.377373
1002 1 0.324512 0.942565 0.383097
781 1 0.380658 0.00940128 0.377488
785 1 0.506758 0.00268191 0.378827
793 1 0.754615 0.000178399 0.376799
769 1 0.997122 0.00415867 0.376041
776 1 0.121475 0.0605174 0.441843
780 1 0.251471 0.0634628 0.439409
783 1 0.442064 0.00194614 0.437769
787 1 0.569009 0.999554 0.440194
796 1 0.759783 0.0663809 0.43568
807 1 0.191302 0.123348 0.432087
784 1 0.376906 0.0562449 0.449971
788 1 0.500747 0.0641848 0.447647
792 1 0.630026 0.0587517 0.434697
800 1 0.876336 0.0618806 0.436907
772 1 -5.62382e-05 0.0620355 0.434962
803 1 0.0672905 0.125095 0.440356
811 1 0.310178 0.141206 0.445149
815 1 0.444362 0.128248 0.43687
819 1 0.563411 0.123476 0.445911
823 1 0.681952 0.13084 0.444023
827 1 0.82543 0.126336 0.445577
831 1 0.933848 0.124405 0.434631
808 1 0.131914 0.187202 0.434972
812 1 0.242684 0.188119 0.436563
816 1 0.37632 0.186725 0.434729
820 1 0.499211 0.18865 0.44228
824 1 0.620421 0.189805 0.432933
828 1 0.752831 0.190122 0.435536
832 1 0.876445 0.192476 0.432528
804 1 0.998962 0.18712 0.440865
835 1 0.0625586 0.248479 0.435275
839 1 0.188283 0.253197 0.443825
843 1 0.308094 0.246727 0.440277
847 1 0.443613 0.247856 0.436385
851 1 0.553071 0.257856 0.432181
855 1 0.684581 0.251487 0.436407
859 1 0.80785 0.257822 0.438341
863 1 0.937978 0.25636 0.433592
836 1 0.00301131 0.310842 0.431276
840 1 0.11012 0.319985 0.43967
844 1 0.249309 0.309369 0.444043
848 1 0.383179 0.314209 0.438008
852 1 0.491482 0.314476 0.451118
856 1 0.615079 0.318653 0.438152
860 1 0.7463 0.314059 0.43369
864 1 0.87384 0.318079 0.44047
867 1 0.0500806 0.377205 0.429938
871 1 0.189368 0.372841 0.435558
875 1 0.319801 0.371877 0.436849
879 1 0.440564 0.373445 0.444508
883 1 0.56089 0.383094 0.437797
887 1 0.681545 0.375404 0.439707
891 1 0.810017 0.37588 0.435136
895 1 0.938391 0.374177 0.430372
868 1 0.00364517 0.443613 0.433767
872 1 0.1299 0.436051 0.435807
876 1 0.247892 0.43447 0.428975
880 1 0.376774 0.427222 0.436672
884 1 0.493408 0.437591 0.44121
888 1 0.621309 0.439625 0.442863
892 1 0.747786 0.429739 0.434537
896 1 0.874419 0.443049 0.434903
899 1 0.071932 0.498067 0.43253
903 1 0.178772 0.506684 0.438221
907 1 0.312614 0.490618 0.432866
911 1 0.430795 0.498652 0.443955
915 1 0.559781 0.507326 0.441808
919 1 0.682093 0.495066 0.438158
923 1 0.809204 0.495917 0.433156
927 1 0.944421 0.504595 0.434791