ITEM: TIMESTEP
100000
ITEM: NUMBER OF ATOMS
2048
ITEM: BOX BOUNDS pp pp pp
0.0000000000000000e+00 1.1950412657485773e+01
0.0000000000000000e+00 1.1950412657485773e+01
0.0000000000000000e+00 1.1950412657485773e+01
ITEM: ATOMS id type xs ys zs
1800 1 0.0639629 0.051754 0.00246908
10 1 0.297524 0.0484293 0.99047
15 1 0.436709 0.00608589 0.0659224
21 1 0.622869 0.000284548 4.06556e-05
22 1 0.681815 0.06685 0.00174713
30 1 0.926028 0.0636136 0.98358
2 1 0.98251 0.128191 0.00737896
26 1 0.819823 0.0573395 0.00593373
37 1 0.113427 0.120381 0.99708
41 1 0.246175 0.127733 0.997289
51 1 0.572533 0.127281 0.0451344
53 1 0.64256 0.134216 0.0102148
55 1 0.700025 0.130325 0.0736613
61 1 0.86436 0.132063 0.00680733
34 1 0.0585913 0.192648 0.993575
40 1 0.131417 0.176368 0.0735968
38 1 0.173799 0.176574 1.00014
77 1 0.303723 0.182409 0.985771
1844 1 0.444592 0.194125 0.994503
54 1 0.628984 0.201725 0.0629578
58 1 0.797053 0.190907 1.00049
33 1 0.930365 0.189881 0.996254
69 1 0.129293 0.252184 0.999855
73 1 0.249364 0.250264 -0.000918269
75 1 0.306094 0.261512 0.0597149
79 1 0.375646 0.253861 0.00600603
87 1 0.692033 0.249357 0.0627701
89 1 0.759843 0.257485 0.0169797
91 1 0.807901 0.254614 0.0794051
65 1 0.990761 0.240856 0.995994
76 1 0.249571 0.313976 0.0466018
74 1 0.320338 0.3146 0.996318
82 1 0.565245 0.306619 0.0144582
111 1 0.431512 0.369799 0.059323
113 1 0.503635 0.378444 0.999273
115 1 0.566766 0.371278 0.0667538
119 1 0.693665 0.379096 0.0703871
98 1 0.075107 0.43666 0.00819914
102 1 0.189617 0.44706 0.993793
122 1 0.817908 0.446328 0.999308
110 1 0.432539 0.43833 0.0025882
120 1 0.627978 0.431604 0.0659473
153 1 0.758074 0.495429 0.0119565
133 1 0.129955 0.506089 0.999278
141 1 0.322216 0.494117 0.0643112
143 1 0.426719 0.499204 0.0624646
147 1 0.49944 0.48894 -0.00220963
130 1 0.0739642 0.568978 0.00709595
138 1 0.313603 0.557458 0.997948
148 1 0.491862 0.552308 0.0509677
146 1 0.554146 0.556531 0.993339
150 1 0.693105 0.55432 0.00553657
154 1 0.816735 0.56309 0.984435
132 1 0.992797 0.568432 0.0587263
165 1 0.148159 0.622979 -0.00094849
169 1 0.266076 0.618491 0.0107617
185 1 0.749017 0.622319 0.989593
191 1 0.938404 0.627131 0.0522164
162 1 0.0772085 0.699956 0.00102415
166 1 0.188711 0.690094 0.993516
170 1 0.312801 0.682445 0.99868
178 1 0.564764 0.695201 0.994492
182 1 0.686865 0.679252 0.996114
186 1 0.813203 0.700129 0.983587
190 1 0.952536 0.689927 0.997863
193 1 0.00911972 0.752741 0.998328
209 1 0.5029 0.751477 0.00953612
213 1 0.629338 0.746223 0.999527
217 1 0.736714 0.743632 0.993208
194 1 0.0646092 0.818839 0.0014188
198 1 0.185773 0.81707 0.0079749
206 1 0.444055 0.813504 0.00335584
222 1 0.936455 0.804398 0.999228
237 1 0.378993 0.881033 0.00994859
212 1 0.51291 0.866803 0.998237
210 1 0.632423 0.869233 0.00100495
249 1 0.755019 0.876564 0.995514
251 1 0.817306 0.867503 0.0564882
253 1 0.883522 0.867824 0.999556
226 1 0.0659373 0.928933 0.992665
238 1 0.433064 0.945265 0.0056772
242 1 0.566103 0.92718 0.993425
246 1 0.695823 0.931136 0.996934
250 1 0.809727 0.945238 0.997606
254 1 0.936987 0.9319 0.00423543
5 1 0.119569 0.997836 0.00186387
25 1 0.738308 0.00328401 0.995558
29 1 0.887854 0.994132 0.0108071
16 1 0.372414 0.054088 0.0481511
24 1 0.631488 0.0778952 0.0716655
23 1 0.682394 0.00756879 0.0589544
4 1 0.014017 0.0697021 0.0601771
8 1 0.117613 0.065878 0.0567473
12 1 0.239488 0.0636155 0.0617383
47 1 0.50069 0.0694983 0.0631558
28 1 0.753674 0.0581647 0.0623121
32 1 0.88308 0.0576637 0.0673364
35 1 0.0616703 0.137833 0.0679119
39 1 0.186439 0.121603 0.0584261
301 1 0.321005 0.124844 0.0464945
46 1 0.437048 0.127891 0.0448328
59 1 0.802739 0.117438 0.0626551
63 1 0.926226 0.137667 0.0640801
36 1 0.996907 0.1912 0.0682279
42 1 0.249977 0.182025 0.0587766
48 1 0.379632 0.185832 0.0689857
52 1 0.509256 0.181666 0.0467397
345 1 0.6987 0.197174 0.126821
60 1 0.760524 0.189984 0.0771539
64 1 0.869163 0.196249 0.0658778
67 1 0.0601338 0.245773 0.0560122
71 1 0.186907 0.253832 0.0669259
329 1 0.252616 0.240529 0.115113
337 1 0.443708 0.257714 0.0611777
339 1 0.509079 0.239467 0.125108
83 1 0.560045 0.242321 0.0634234
95 1 0.940082 0.249621 0.0606588
72 1 0.115631 0.308486 0.0584508
80 1 0.368226 0.317316 0.0669844
84 1 0.49759 0.31931 0.0596835
88 1 0.632094 0.321426 0.0634534
346 1 0.752995 0.319132 0.066172
96 1 0.87848 0.308815 0.0666548
97 1 0.997376 0.31293 0.0711325
322 1 0.0564626 0.373476 0.057826
103 1 0.187472 0.374354 0.0665967
107 1 0.314321 0.374035 0.0799063
377 1 0.815283 0.373751 0.0666215
1892 1 0.93229 0.374489 0.070078
104 1 0.12694 0.432161 0.0697493
112 1 0.37492 0.429436 0.066281
124 1 0.749069 0.442448 0.0695025
378 1 0.820394 0.437173 0.121155
100 1 0.995975 0.443177 0.0474569
108 1 0.252588 0.432356 0.0711571
116 1 0.488008 0.43619 0.061713
128 1 0.880565 0.432123 0.0647955
159 1 0.944881 0.506812 0.060326
131 1 0.0659554 0.502381 0.0615663
135 1 0.18949 0.495135 0.0668229
401 1 0.559227 0.49991 0.0615941
151 1 0.69064 0.497515 0.0598825
156 1 0.753438 0.578678 0.0606424
155 1 0.817251 0.506321 0.0696546
160 1 0.877034 0.561718 0.0497999
136 1 0.130901 0.559674 0.0701173
140 1 0.250411 0.555429 0.0705564
144 1 0.372304 0.561143 0.0677496
152 1 0.618155 0.552333 0.0566593
163 1 0.079704 0.63001 0.0609773
167 1 0.188926 0.624209 0.0730673
171 1 0.319054 0.648642 0.0736497
175 1 0.436419 0.613742 0.0588084
179 1 0.560119 0.630427 0.049569
183 1 0.682418 0.625705 0.0531851
187 1 0.826837 0.632236 0.0445328
164 1 0.014615 0.702257 0.0553028
168 1 0.135523 0.68936 0.0631126
172 1 0.239143 0.682609 0.0593758
176 1 0.392541 0.685263 0.0666078
180 1 0.49812 0.68769 0.0638218
184 1 0.627389 0.693686 0.0591526
188 1 0.740468 0.690586 0.0602081
192 1 0.882404 0.690304 0.0525707
195 1 0.0715236 0.756383 0.0653661
199 1 0.18744 0.747144 0.068162
203 1 0.321661 0.734167 0.0620293
207 1 0.438103 0.759672 0.0608237
211 1 0.564251 0.74192 0.0612454
215 1 0.69123 0.751106 0.0556889
219 1 0.819122 0.756344 0.0533837
223 1 0.94429 0.757311 0.0645954
196 1 2.79057e-05 0.818431 0.0522158
200 1 0.125983 0.822516 0.0620129
204 1 0.248725 0.808225 0.0612034
208 1 0.374266 0.810011 0.0622921
241 1 0.504121 0.817808 0.0590575
243 1 0.64156 0.812452 0.0601289
220 1 0.757708 0.810765 0.0523293
224 1 0.882463 0.813917 0.0602692
227 1 0.0686385 0.876849 0.0592135
231 1 0.191586 0.87426 0.0660243
235 1 0.321452 0.872784 0.0680799
239 1 0.448672 0.878665 0.0541452
244 1 0.580427 0.87789 0.0609665
247 1 0.68863 0.876464 0.067263
255 1 0.939551 0.872874 0.0613744
232 1 0.122988 0.944887 0.0641511
236 1 0.250396 0.93982 0.0836993
240 1 0.378717 0.934307 0.0758271
273 1 0.49831 0.948251 0.0567477
498 1 0.562729 0.940976 0.133171
248 1 0.625687 0.944076 0.0568519
252 1 0.74843 0.936268 0.0621125
256 1 0.876665 0.928625 0.0508753
228 1 0.0103425 0.945807 0.0533856
3 1 0.0670955 0.00348937 0.070157
7 1 0.185874 0.996757 0.0673901
11 1 0.306159 0.00663225 0.0579591
19 1 0.555357 0.0096251 0.0532309
27 1 0.814501 0.00458677 0.0639605
31 1 0.949875 0.0114995 0.0628926
266 1 0.31254 0.0666623 0.114775
269 1 0.370214 0.00525622 0.11282
278 1 0.698597 0.0639605 0.136292
281 1 0.748679 0.997347 0.1247
286 1 0.934168 0.0646818 0.130893
258 1 0.0648177 0.0639594 0.126406
262 1 0.185283 0.0522026 0.13238
302 1 0.378726 0.121262 0.116096
270 1 0.441678 0.0654119 0.118156
275 1 0.563529 0.0791037 0.118092
282 1 0.806614 0.0567602 0.123825
289 1 0.991493 0.117488 0.125441
294 1 0.123422 0.119604 0.127488
44 1 0.243283 0.120918 0.120888
274 1 0.495722 0.122219 0.121864
309 1 0.639995 0.138266 0.132158
313 1 0.752732 0.126631 0.131677
317 1 0.866612 0.118388 0.119029
290 1 0.0634381 0.187388 0.130505
300 1 0.186973 0.187524 0.129709
298 1 0.309013 0.173989 0.11265
305 1 0.4445 0.182514 0.107209
56 1 0.566344 0.175166 0.12077
314 1 0.808514 0.188214 0.140697
318 1 0.933708 0.181579 0.136265
321 1 0.0131183 0.246958 0.120498
325 1 0.128342 0.245187 0.121982
333 1 0.375703 0.253009 0.121428
341 1 0.634402 0.245777 0.13087
92 1 0.75604 0.252714 0.139555
349 1 0.879534 0.246461 0.128334
68 1 0.0704422 0.303226 0.137962
326 1 0.173712 0.310587 0.140824
330 1 0.309942 0.303066 0.128211
334 1 0.448608 0.321453 0.135021
338 1 0.571933 0.313615 0.123892
342 1 0.691632 0.319267 0.120985
123 1 0.812535 0.321486 0.130675
350 1 0.937486 0.305325 0.125809
99 1 0.122826 0.371276 0.122401
365 1 0.38955 0.376786 0.129423
369 1 0.507571 0.373175 0.120239
373 1 0.63184 0.376641 0.129571
375 1 0.756737 0.381915 0.125651
381 1 0.873111 0.374473 0.136371
353 1 0.000786524 0.374261 0.12336
358 1 0.192519 0.420203 0.135608
361 1 0.246247 0.360998 0.130314
366 1 0.436451 0.445206 0.125441
370 1 0.546944 0.441152 0.12169
374 1 0.687048 0.448405 0.133111
385 1 0.00305743 0.508702 0.122537
354 1 0.0546585 0.429785 0.122997
393 1 0.24489 0.494632 0.125185
395 1 0.315004 0.439277 0.131589
405 1 0.619267 0.499779 0.118367
409 1 0.752588 0.503241 0.125904
127 1 0.944183 0.446807 0.117504
389 1 0.128801 0.492768 0.11915
362 1 0.373995 0.500291 0.138403
397 1 0.499697 0.505466 0.121337
413 1 0.878859 0.50027 0.122331
386 1 0.0648638 0.567158 0.122296
390 1 0.185976 0.561558 0.135497
139 1 0.30794 0.546511 0.127293
398 1 0.435149 0.561788 0.12952
402 1 0.548817 0.569912 0.101033
406 1 0.683655 0.559312 0.116685
410 1 0.821194 0.576065 0.11034
414 1 0.931813 0.567701 0.119882
421 1 0.127312 0.619232 0.132143
425 1 0.261403 0.617889 0.124672
429 1 0.376287 0.630982 0.125613
433 1 0.503294 0.631398 0.124112
437 1 0.625253 0.613295 0.116013
441 1 0.744238 0.627163 0.12209
445 1 0.878007 0.634925 0.111139
417 1 0.999049 0.624522 0.115188
418 1 0.0590657 0.681589 0.124905
422 1 0.192396 0.6843 0.126901
426 1 0.309011 0.691477 0.139858
430 1 0.443994 0.688642 0.128762
434 1 0.573675 0.692705 0.128194
438 1 0.684295 0.677246 0.127894
442 1 0.813321 0.691377 0.114969
446 1 0.94878 0.68386 0.124305
449 1 0.00482857 0.757418 0.122587
453 1 0.130974 0.743369 0.129189
457 1 0.256413 0.750852 0.12743
461 1 0.382972 0.748986 0.121094
465 1 0.506235 0.750776 0.122879
470 1 0.633982 0.745091 0.120927
473 1 0.754224 0.748485 0.113121
477 1 0.877005 0.753795 0.115757
450 1 0.0590818 0.818934 0.119014
454 1 0.180333 0.822524 0.123458
458 1 0.30583 0.816872 0.12515
462 1 0.444339 0.816408 0.123416
466 1 0.569895 0.817358 0.111864
216 1 0.70377 0.811409 0.118759
474 1 0.817669 0.812397 0.120731
478 1 0.944893 0.814029 0.120926
481 1 0.00145527 0.877902 0.125624
485 1 0.114094 0.873549 0.131257
489 1 0.252728 0.872327 0.124122
493 1 0.378379 0.872609 0.122575
468 1 0.49858 0.877509 0.117313
472 1 0.621346 0.879232 0.129101
505 1 0.755868 0.876031 0.126504
509 1 0.870268 0.87663 0.116891
482 1 0.065821 0.938764 0.1185
486 1 0.180757 0.940917 0.12544
490 1 0.31859 0.944512 0.121254
497 1 0.45002 0.940464 0.122769
502 1 0.674588 0.940746 0.124962
506 1 0.810122 0.928529 0.11493
510 1 0.9368 0.937299 0.114268
261 1 0.122332 0.9995 0.131867
265 1 0.254098 0.0114434 0.127932
280 1 0.506861 0.00343733 0.126125
277 1 0.61186 0.0121586 0.137653
285 1 0.870622 0.995984 0.120979
257 1 0.00913689 0.993331 0.127021
297 1 0.252983 0.0699566 0.184964
283 1 0.808437 0.990325 0.191754
288 1 0.863913 0.0508976 0.175771
287 1 0.932792 0.992629 0.177637
295 1 0.133285 0.0614882 0.192537
272 1 0.379773 0.0684012 0.181163
276 1 0.495306 0.0628826 0.181137
311 1 0.63603 0.0732199 0.191012
284 1 0.761183 0.0648921 0.187062
260 1 0.996928 0.0547224 0.182579
293 1 0.0581704 0.113148 0.193101
546 1 0.189009 0.122908 0.182115
299 1 0.321806 0.123795 0.18078
303 1 0.442018 0.124706 0.178213
307 1 0.579943 0.130448 0.182942
310 1 0.699227 0.128561 0.193132
315 1 0.823989 0.130662 0.191107
319 1 0.944822 0.131535 0.195578
296 1 0.119836 0.182378 0.185523
522 1 0.262513 0.185746 0.177588
304 1 0.381241 0.18253 0.172624
308 1 0.508299 0.179628 0.183261
312 1 0.626333 0.196346 0.200304
316 1 0.747233 0.188805 0.197796
320 1 0.885498 0.188845 0.199028
292 1 0.99596 0.196618 0.185991
323 1 0.0626203 0.246959 0.196398
327 1 0.179709 0.242361 0.187822
331 1 0.312534 0.24943 0.186349
335 1 0.441582 0.248489 0.171342
306 1 0.569966 0.253372 0.195415
343 1 0.696315 0.258296 0.1945
347 1 0.816023 0.264725 0.197072
351 1 0.938425 0.250973 0.1901
357 1 0.124193 0.304391 0.208289
332 1 0.248347 0.299879 0.194651
336 1 0.383397 0.311944 0.178893
340 1 0.504393 0.312286 0.188778
344 1 0.633698 0.312543 0.187035
348 1 0.749895 0.322162 0.184025
379 1 0.887004 0.315999 0.196361
355 1 0.00866841 0.308758 0.188149
356 1 0.0563611 0.37065 0.183628
359 1 0.180826 0.367932 0.193831
363 1 0.323607 0.372782 0.185524
367 1 0.439852 0.379364 0.194232
371 1 0.56624 0.387321 0.180814
630 1 0.691131 0.372874 0.18306
633 1 0.817479 0.375653 0.200776
383 1 0.942406 0.383214 0.180438
382 1 -0.000150629 0.448946 0.183744
360 1 0.125852 0.436365 0.192478
364 1 0.243415 0.442527 0.188913
372 1 0.4944 0.437824 0.182052
376 1 0.628129 0.43868 0.192719
380 1 0.745741 0.447466 0.186071
384 1 0.869923 0.440596 0.183615
387 1 0.071917 0.502932 0.175774
368 1 0.379231 0.437301 0.188734
407 1 0.67695 0.503854 0.188874
391 1 0.184344 0.496658 0.190178
396 1 0.307967 0.495212 0.187168
399 1 0.440962 0.49851 0.181149
403 1 0.56475 0.498681 0.183941
411 1 0.818935 0.50961 0.177895
415 1 0.936248 0.503526 0.193124
645 1 0.119168 0.572912 0.1984
650 1 0.243455 0.564419 0.194353
400 1 0.376394 0.566013 0.186324
404 1 0.506671 0.568247 0.178507
408 1 0.621108 0.555501 0.17729
412 1 0.744327 0.560523 0.179377
416 1 0.880569 0.570062 0.183683
447 1 0.945022 0.629161 0.18539
388 1 0.0123255 0.567442 0.182306
419 1 0.0593692 0.633229 0.187228
392 1 0.198738 0.629046 0.181788
394 1 0.320131 0.62301 0.189026
431 1 0.432485 0.62237 0.179915
435 1 0.5655 0.62653 0.17306
439 1 0.680746 0.61011 0.180986
443 1 0.803044 0.622102 0.189083
424 1 0.131522 0.685151 0.183706
423 1 0.246404 0.694077 0.19078
432 1 0.380279 0.679695 0.191309
436 1 0.514564 0.696019 0.185815
469 1 0.632972 0.687902 0.192056
444 1 0.755252 0.690785 0.175364
448 1 0.875353 0.69341 0.174206
420 1 0.00151196 0.689955 0.179669
451 1 0.0624274 0.749941 0.191761
428 1 0.194919 0.754153 0.181861
459 1 0.318901 0.750496 0.197534
463 1 0.443382 0.755393 0.179527
467 1 0.574937 0.755952 0.186949
471 1 0.694415 0.749595 0.191641
475 1 0.808572 0.750992 0.178745
479 1 0.936126 0.748012 0.188132
452 1 0.00214714 0.810864 0.192349
456 1 0.11882 0.808628 0.176969
460 1 0.258137 0.817235 0.188155
464 1 0.374017 0.811856 0.178517
721 1 0.50727 0.806075 0.176747
499 1 0.633561 0.815786 0.176859
476 1 0.756688 0.811416 0.176661
480 1 0.877975 0.806283 0.171955
483 1 0.0568908 0.870468 0.189763
487 1 0.18346 0.875534 0.191378
491 1 0.317461 0.875627 0.180283
718 1 0.438509 0.872829 0.181466
500 1 0.555332 0.87049 0.179902
503 1 0.692686 0.880949 0.188347
507 1 0.816026 0.879235 0.193653
511 1 0.930036 0.875743 0.172504
484 1 0.0074393 0.943052 0.186983
488 1 0.117958 0.935852 0.194257
494 1 0.500453 0.935688 0.183626
501 1 0.619729 0.935202 0.188631
512 1 0.869991 0.937817 0.177925
259 1 0.0650364 0.0153886 0.195155
263 1 0.190157 0.99632 0.18569
492 1 0.247381 0.932121 0.174686
496 1 0.320717 0.00768947 0.180083
495 1 0.383077 0.937444 0.176802
271 1 0.442296 0.9981 0.17855
504 1 0.55714 0.999412 0.193323
279 1 0.690898 0.00310331 0.187882
508 1 0.746946 0.940069 0.183367
513 1 0.0101078 0.995037 0.253003
517 1 0.133992 -0.000714872 0.245291
529 1 0.491923 0.997737 0.24394
533 1 0.62953 0.999279 0.242303
537 1 0.747276 0.00259166 0.256111
514 1 0.0642433 0.0656049 0.25459
518 1 0.20002 0.0703631 0.251703
267 1 0.315741 0.0626052 0.237668
526 1 0.436164 0.0798336 0.253432
530 1 0.570949 0.0677299 0.236874
534 1 0.691993 0.0590299 0.253258
538 1 0.819808 0.0605068 0.255023
542 1 0.941971 0.0456 0.245293
552 1 0.128617 0.121761 0.244742
268 1 0.253113 0.139396 0.252238
557 1 0.368501 0.122672 0.246685
561 1 0.509462 0.119691 0.244257
565 1 0.624198 0.127504 0.24861
569 1 0.759241 0.121699 0.250688
573 1 0.88743 0.107503 0.247088
291 1 1.00032 0.114793 0.262852
264 1 0.065279 0.17988 0.253475
583 1 0.183708 0.184167 0.24582
553 1 0.32962 0.196562 0.247343
558 1 0.440187 0.167414 0.248429
562 1 0.569174 0.184755 0.256212
566 1 0.68 0.188399 0.258096
570 1 0.814894 0.189717 0.248099
574 1 0.943784 0.186943 0.26057
328 1 0.123974 0.236748 0.259402
585 1 0.2527 0.226543 0.252821
589 1 0.399181 0.237715 0.241634
593 1 0.502754 0.24146 0.24146
597 1 0.623926 0.249776 0.261319
601 1 0.742981 0.257126 0.26204
352 1 0.882917 0.25252 0.254172
548 1 0.00310816 0.240497 0.258499
578 1 0.0629828 0.313929 0.252811
582 1 0.192615 0.301193 0.253741
586 1 0.328771 0.307491 0.247406
590 1 0.43996 0.317747 0.248392
594 1 0.563501 0.317187 0.250985
598 1 0.684265 0.313431 0.253628
605 1 0.819954 0.319833 0.256699
324 1 0.949178 0.311209 0.250134
613 1 0.126904 0.370826 0.260901
617 1 0.259659 0.366099 0.245628
621 1 0.376733 0.372179 0.242657
625 1 0.511943 0.379167 0.241485
629 1 0.632167 0.377469 0.243965
635 1 0.753351 0.3797 0.252198
637 1 0.879012 0.376452 0.254295
609 1 0.00150884 0.382363 0.237062
610 1 0.0702924 0.425154 0.252843
649 1 0.193206 0.442023 0.250943
618 1 0.321988 0.436207 0.250844
628 1 0.44169 0.452971 0.24827
626 1 0.567833 0.440924 0.245846
634 1 0.820118 0.440464 0.253779
638 1 0.935395 0.438734 0.241626
622 1 0.380116 0.507115 0.238457
602 1 0.68219 0.442143 0.255054
669 1 0.880961 0.509834 0.251911
641 1 0.988833 0.510722 0.261165
616 1 0.123332 0.500315 0.241099
653 1 0.257907 0.501943 0.250723
657 1 0.508845 0.508769 0.252945
661 1 0.613739 0.507988 0.253138
665 1 0.75091 0.506856 0.241206
642 1 0.0564299 0.557489 0.249797
646 1 0.181815 0.574572 0.254687
427 1 0.318744 0.568239 0.258024
654 1 0.439298 0.565569 0.242423
658 1 0.559025 0.572188 0.243916
662 1 0.679242 0.558826 0.250197
666 1 0.812816 0.559918 0.242159
670 1 0.947908 0.576571 0.248057
677 1 0.114817 0.626875 0.255245
681 1 0.254693 0.622135 0.253313
685 1 0.377047 0.62309 0.249542
689 1 0.499155 0.633569 0.229121
693 1 0.622009 0.627939 0.245894
697 1 0.741536 0.623243 0.246854
701 1 0.881378 0.635759 0.240429
673 1 0.00819947 0.633746 0.246983
674 1 0.0757727 0.697103 0.248014
678 1 0.187668 0.683671 0.242739
682 1 0.311074 0.681654 0.243789
686 1 0.440407 0.689616 0.240317
440 1 0.559236 0.684998 0.253051
694 1 0.683894 0.689204 0.255461
698 1 0.814141 0.688516 0.243633
702 1 0.94871 0.689767 0.252275
705 1 0.00899726 0.745303 0.251316
709 1 0.13533 0.753957 0.246427
455 1 0.241146 0.760666 0.247368
717 1 0.38343 0.757178 0.243699
690 1 0.498618 0.748806 0.246201
725 1 0.624843 0.744636 0.247673
729 1 0.749717 0.745237 0.24941
733 1 0.874815 0.754911 0.244752
706 1 0.0730143 0.805908 0.256702
710 1 0.187106 0.82124 0.24961
714 1 0.307207 0.817011 0.251788
719 1 0.447377 0.817408 0.246174
722 1 0.566404 0.810435 0.243899
726 1 0.683987 0.800091 0.252656
730 1 0.807517 0.79855 0.257015
734 1 0.934635 0.815671 0.24972
737 1 0.993428 0.887236 0.245155
741 1 0.127761 0.879968 0.259457
745 1 0.248362 0.882633 0.247853
749 1 0.374258 0.863765 0.24793
753 1 0.503057 0.868317 0.24164
757 1 0.612595 0.87356 0.241096
761 1 0.75444 0.864636 0.249518
765 1 0.888105 0.878895 0.239446
738 1 0.0671463 0.932031 0.255083
742 1 0.183658 0.93546 0.259672
746 1 0.314761 0.944711 0.229903
750 1 0.439775 0.935261 0.24271
754 1 0.557892 0.932195 0.247536
758 1 0.691653 0.940287 0.249411
762 1 0.823637 0.923082 0.264112
766 1 0.940173 0.947829 0.250584
521 1 0.250965 0.00539744 0.23958
525 1 0.37972 1.00087 0.237733
541 1 0.867615 0.994733 0.24437
523 1 0.315212 0.0060338 0.298575
527 1 0.427219 0.989125 0.311032
531 1 0.570954 0.994448 0.302667
535 1 0.692028 0.998868 0.316707
543 1 0.941185 0.00164839 0.31408
516 1 0.00808355 0.0513977 0.313979
520 1 0.134983 0.0635044 0.304132
524 1 0.257692 0.0661322 0.303056
528 1 0.372342 0.0627534 0.29996
532 1 0.513898 0.0572598 0.297153
536 1 0.627521 0.0652004 0.308876
540 1 0.754408 0.0656415 0.310108
544 1 0.877009 0.0492766 0.314384
547 1 0.0621014 0.124058 0.313696
551 1 0.181818 0.133607 0.303415
555 1 0.322014 0.120266 0.312117
559 1 0.451762 0.122429 0.317663
563 1 0.57525 0.127751 0.317594
567 1 0.694476 0.126258 0.316968
571 1 0.828155 0.12431 0.313152
575 1 0.940745 0.103868 0.318144
545 1 0.00466328 0.179213 0.313362
550 1 0.118388 0.182142 0.316152
554 1 0.258013 0.190191 0.321835
560 1 0.386298 0.184402 0.311078
564 1 0.507876 0.178925 0.313254
568 1 0.632063 0.188274 0.318934
572 1 0.758303 0.179977 0.307802
576 1 0.863886 0.197005 0.32148
579 1 0.0626499 0.245432 0.31136
549 1 0.192015 0.231933 0.306363
587 1 0.309027 0.253333 0.30734
591 1 0.43945 0.240462 0.324769
595 1 0.561056 0.253582 0.318128
599 1 0.689122 0.247797 0.326063
603 1 0.808605 0.268294 0.315783
577 1 0.940533 0.251531 0.307855
580 1 0.00723026 0.316753 0.308313
584 1 0.132532 0.304928 0.305606
588 1 0.251428 0.315453 0.312405
592 1 0.38149 0.310755 0.313147
596 1 0.50915 0.312601 0.311532
600 1 0.6235 0.317474 0.306745
604 1 0.747929 0.326378 0.31128
608 1 0.881408 0.310215 0.311201
611 1 0.0534204 0.380909 0.319464
615 1 0.19177 0.36889 0.30987
619 1 0.315754 0.369084 0.30245
623 1 0.447465 0.382413 0.30408
627 1 0.567878 0.375902 0.308894
631 1 0.688272 0.384513 0.306409
607 1 0.818442 0.371948 0.327427
606 1 0.942489 0.370235 0.302846
612 1 0.00109959 0.437845 0.293718
614 1 0.131483 0.441059 0.311938
620 1 0.258922 0.442701 0.308792
624 1 0.386413 0.439687 0.303626
882 1 0.513549 0.442566 0.308772
632 1 0.620358 0.445321 0.310623
640 1 0.877313 0.432573 0.320628
647 1 0.187809 0.506033 0.299715
655 1 0.440724 0.508963 0.314804
659 1 0.562563 0.506235 0.324026
663 1 0.688287 0.501182 0.309202
890 1 0.752981 0.430613 0.320416
671 1 0.929408 0.494663 0.318107
643 1 0.0674654 0.495312 0.299867
651 1 0.324599 0.503263 0.309683
667 1 0.797773 0.49804 0.305796
648 1 0.117841 0.562301 0.304098
652 1 0.25198 0.557711 0.30258
656 1 0.38345 0.561918 0.302421
660 1 0.496318 0.576936 0.311104
664 1 0.628757 0.559781 0.312187
668 1 0.741437 0.564415 0.304465
672 1 0.868446 0.566686 0.306819
644 1 0.995746 0.569981 0.311728
675 1 0.059335 0.629447 0.309691
679 1 0.184271 0.629168 0.31205
683 1 0.326748 0.642165 0.310547
687 1 0.435986 0.636613 0.313528
949 1 0.572669 0.622684 0.306931
695 1 0.682838 0.630447 0.310123
699 1 0.810991 0.63075 0.304401
703 1 0.937074 0.633516 0.309635
676 1 0.996932 0.684942 0.312958
680 1 0.128898 0.689473 0.307217
713 1 0.246327 0.6873 0.298968
688 1 0.382077 0.699732 0.298493
691 1 0.494361 0.68549 0.303274
696 1 0.627254 0.691409 0.306874
700 1 0.744093 0.682992 0.308877
704 1 0.880562 0.693197 0.301853
707 1 0.0711324 0.753257 0.320095
711 1 0.191572 0.747852 0.311363
715 1 0.301091 0.744793 0.301372
692 1 0.439014 0.753374 0.313138
723 1 0.566568 0.761355 0.305678
727 1 0.688987 0.742462 0.313464
731 1 0.811626 0.743813 0.321162
735 1 0.946674 0.750326 0.299422
708 1 0.00245522 0.810485 0.312993
712 1 0.136241 0.813922 0.315324
716 1 0.243711 0.8129 0.310868
720 1 0.384159 0.808173 0.315152
724 1 0.509493 0.82076 0.302934
728 1 0.624756 0.819234 0.314324
732 1 0.736852 0.816685 0.314622
736 1 0.887652 0.805989 0.315884
739 1 0.0606759 0.874225 0.3249
743 1 0.185228 0.879664 0.3162
747 1 0.325806 0.868334 0.311983
751 1 0.438093 0.872363 0.309622
755 1 0.568896 0.877035 0.308398
759 1 0.681323 0.878229 0.302952
763 1 0.828746 0.859467 0.323863
767 1 0.94222 0.874894 0.317082
740 1 -0.000306043 0.936507 0.314855
744 1 0.121514 0.928972 0.324934
748 1 0.259143 0.941529 0.298611
752 1 0.370959 0.938118 0.299482
756 1 0.496914 0.928748 0.309839
760 1 0.627556 0.937633 0.304153
764 1 0.753002 0.936347 0.30619
768 1 0.884762 0.935734 0.31137
515 1 0.0755504 0.998946 0.302201
519 1 0.186352 0.998348 0.312798
539 1 0.814875 0.990423 0.307292
777 1 0.263791 0.989655 0.361815
781 1 0.364432 0.99145 0.367039
785 1 0.501564 0.997511 0.348137
793 1 0.761744 0.00480889 0.366746
797 1 0.881396 0.992129 0.379805
769 1 0.00436493 0.013019 0.388949
770 1 0.0741552 0.0597718 0.377451
774 1 0.189746 0.0624426 0.374218
778 1 0.302981 0.0655193 0.37033
782 1 0.440031 0.0528779 0.38148
786 1 0.564146 0.056472 0.371557
790 1 0.694846 0.0605609 0.372946
794 1 0.817436 0.0676174 0.373143
798 1 0.935361 0.0660318 0.389059
805 1 0.134249 0.115992 0.369413
809 1 0.244365 0.121402 0.362087
813 1 0.389419 0.124695 0.38792
817 1 0.517295 0.123819 0.371674
821 1 0.635652 0.109783 0.373733
825 1 0.748955 0.119363 0.382005
829 1 0.877953 0.121578 0.374761
801 1 0.00523787 0.113805 0.376146
802 1 0.0575263 0.191693 0.379744
581 1 0.18733 0.184042 0.372414
810 1 0.325818 0.1786 0.367047
814 1 0.455389 0.176569 0.374423
818 1 0.566124 0.184039 0.376583
822 1 0.688573 0.169841 0.391438
826 1 0.811329 0.169021 0.37883
830 1 0.940015 0.181476 0.371355
806 1 0.128828 0.244996 0.361152
556 1 0.248366 0.255199 0.380342
845 1 0.374953 0.244127 0.385663
849 1 0.507734 0.241049 0.377598
853 1 0.634595 0.255575 0.381941
857 1 0.758195 0.240105 0.374006
861 1 0.882895 0.253458 0.371883
833 1 0.00499487 0.251811 0.367216
834 1 0.0617455 0.30672 0.383252
838 1 0.186488 0.304616 0.37262
842 1 0.311246 0.303385 0.377316
846 1 0.440725 0.316058 0.371796
850 1 0.56528 0.303259 0.385428
854 1 0.681007 0.322688 0.374293
858 1 0.823778 0.306889 0.382031
895 1 0.943708 0.302325 0.371404
1149 1 0.994734 0.361561 0.374078
840 1 0.125223 0.376518 0.361082
873 1 0.259239 0.38124 0.358866
877 1 0.373305 0.379163 0.365886
885 1 0.619037 0.372965 0.374533
889 1 0.747804 0.374918 0.3818
893 1 0.887219 0.359842 0.38689
869 1 0.0749393 0.451061 0.371435
870 1 0.194776 0.445456 0.367229
874 1 0.323013 0.44926 0.373761
878 1 0.448837 0.436861 0.366809
879 1 0.501999 0.371961 0.365447
886 1 0.675443 0.435093 0.370605
921 1 0.813239 0.436583 0.382491
639 1 0.941927 0.426209 0.385371
901 1 0.139895 0.504395 0.367493
905 1 0.258737 0.500141 0.361484
881 1 0.566415 0.441055 0.376744
897 1 0.00493794 0.503924 0.364833
909 1 0.382051 0.517755 0.372034
913 1 0.506211 0.495632 0.373799
917 1 0.633283 0.504073 0.378275
636 1 0.742174 0.492141 0.37186
925 1 0.875774 0.496439 0.378581
898 1 0.0673559 0.559909 0.364246
902 1 0.185047 0.571457 0.369859
906 1 0.321733 0.572377 0.357475
910 1 0.443645 0.572378 0.370745
914 1 0.564569 0.563136 0.375528
918 1 0.697349 0.564516 0.378524
922 1 0.798151 0.562472 0.366041
926 1 0.943693 0.562291 0.374617
933 1 0.123859 0.625713 0.368462
684 1 0.25668 0.625179 0.352703
945 1 0.504964 0.629891 0.368091
947 1 0.634627 0.619972 0.373212
953 1 0.746104 0.627967 0.36924
957 1 0.867226 0.626537 0.365192
929 1 0.0111491 0.621955 0.375898
930 1 0.0745656 0.687287 0.361447
934 1 0.199434 0.687628 0.364084
938 1 0.315299 0.684277 0.378153
942 1 0.444846 0.686634 0.373572
950 1 0.67752 0.685555 0.374895
954 1 0.816126 0.684034 0.374744
958 1 0.930821 0.6937 0.381494
961 1 0.0049442 0.740074 0.375437
965 1 0.132193 0.751536 0.380161
969 1 0.250251 0.750737 0.365635
973 1 0.365044 0.745928 0.370949
977 1 0.502177 0.756028 0.367389
981 1 0.616671 0.754663 0.376158
985 1 0.740409 0.748418 0.377106
990 1 0.872749 0.753364 0.376986
962 1 0.0680587 0.808432 0.380057
966 1 0.191948 0.824191 0.373974
970 1 0.314946 0.811551 0.373722
974 1 0.442797 0.810435 0.373139
978 1 0.561373 0.822562 0.366642
982 1 0.684201 0.810678 0.375123
986 1 0.812698 0.809441 0.386572
1023 1 0.940826 0.81045 0.37773
993 1 0.99885 0.869424 0.372386
997 1 0.133957 0.880914 0.387365
1001 1 0.254744 0.878308 0.364284
1005 1 0.381925 0.862898 0.378271
1009 1 0.491666 0.87581 0.377644
1013 1 0.623598 0.875988 0.374681
1017 1 0.745053 0.872889 0.371419
1021 1 0.885967 0.870917 0.37693
994 1 0.0557048 0.948316 0.371691
998 1 0.191264 0.942875 0.376264
1002 1 0.322173 0.921599 0.370654
1010 1 0.558196 0.935217 0.367032
1018 1 0.813187 0.934656 0.369638
1022 1 0.947217 0.944779 0.372235
773 1 0.125738 0.993336 0.374215
1006 1 0.431771 0.929985 0.376303
789 1 0.631287 0.00614542 0.372855
1014 1 0.677061 0.936939 0.371071
779 1 0.311928 0.00700453 0.435784
783 1 0.438076 0.992514 0.440194
787 1 0.562511 0.994916 0.439072
791 1 0.688192 0.997279 0.432682
776 1 0.135414 0.0484595 0.436665
780 1 0.2513 0.0662469 0.449568
784 1 0.371421 0.0578837 0.441105
788 1 0.506142 0.0585524 0.429903
792 1 0.61873 0.0541549 0.437816
796 1 0.75463 0.0591875 0.440358
803 1 0.0567571 0.12374 0.43633
807 1 0.188755 0.11506 0.435012
815 1 0.442322 0.116272 0.453217
819 1 0.569162 0.114419 0.429749
823 1 0.684412 0.102076 0.441208
827 1 0.806318 0.118172 0.447373
831 1 0.95215 0.129522 0.438865
835 1 0.121457 0.181265 0.429411
841 1 0.247025 0.179314 0.4311
816 1 0.369154 0.188099 0.44528
820 1 0.506573 0.176742 0.434169
824 1 0.626742 0.172722 0.436019
828 1 0.756049 0.183746 0.451964
832 1 0.882299 0.176106 0.441055
837 1 0.0728044 0.245933 0.437456
1097 1 0.174078 0.243978 0.430135
843 1 0.305418 0.246412 0.437429
847 1 0.446536 0.236601 0.441735
851 1 0.556621 0.239668 0.444864
855 1 0.690617 0.237424 0.442268
859 1 0.829528 0.234026 0.431375
836 1 0.930726 0.247627 0.433861
863 1 0.998475 0.30055 0.436363
839 1 0.120811 0.308758 0.435649
844 1 0.247988 0.325703 0.424927
848 1 0.380672 0.308638 0.434967
852 1 0.498204 0.298011 0.44216
856 1 0.638466 0.31441 0.439586
860 1 0.75418 0.305854 0.43587
867 1 0.065241 0.379353 0.419234
872 1 0.181173 0.364053 0.434339
875 1 0.317819 0.376421 0.43463
1133 1 0.44172 0.375382 0.43997
883 1 0.566662 0.369088 0.429625
887 1 0.687821 0.381017 0.4479
1150 1 0.939735 0.366722 0.450753
894 1 0.00797091 0.428378 0.434315
1122 1 0.12907 0.43689 0.432696
880 1 0.381433 0.457055 0.432872
884 1 0.50288 0.422726 0.428213
888 1 0.62406 0.438379 0.435817
892 1 0.754415 0.434675 0.440234
896 1 0.87645 0.424981 0.433724
876 1 0.261139 0.440984 0.42788
907 1 0.308927 0.506265 0.425551
911 1 0.442318 0.515702 0.430703
919 1 0.687953 0.5018 0.437474
923 1 0.819172 0.50477 0.439225
927 1 0.941966 0.495368 0.436536
899 1 0.0664675 0.499208 0.4391
903 1 0.185879 0.496889 0.433108
912 1 0.376176 0.570607 0.434732
915 1 0.568999 0.499807 0.432213
928 1 0.87447 0.565723 0.437536
900 1 0.00708156 0.556356 0.42848