ITEM: TIMESTEP
100000
ITEM: NUMBER OF ATOMS
2048
ITEM: BOX BOUNDS pp pp pp
0.0000000000000000e+00 1.2699208415745595e+01
0.0000000000000000e+00 1.2699208415745595e+01
0.0000000000000000e+00 1.2699208415745595e+01
ITEM: ATOMS id type xs ys zs
1460 1 0.171645 0.0867397 0.0476352
1201 1 0.364982 0.913643 0.0471365
1962 1 0.227504 0.935287 0.945728
755 1 0.47578 0.920899 0.0298191
1199 1 0.847217 0.166971 0.0978285
636 1 0.0281347 0.970203 0.259602
2022 1 0.175574 0.298427 0.118557
509 1 0.20852 0.146309 0.0815187
1059 1 0.326279 0.09309 0.130038
937 1 0.527513 0.995397 0.00720605
1400 1 0.543144 0.138819 0.979759
575 1 0.528735 0.0575785 0.940908
670 1 0.7792 0.127087 0.0905461
1782 1 0.110478 0.995795 0.236698
1237 1 0.365093 0.0446401 0.976991
669 1 0.867905 0.0977465 0.0551635
1019 1 0.0166452 0.050106 0.0651652
769 1 0.209637 0.290164 0.0420285
1364 1 0.23235 0.0631123 0.180016
1653 1 0.285294 0.194846 0.227462
964 1 0.477416 0.221321 0.0816671
371 1 0.491445 0.0929743 0.045427
1327 1 0.173785 0.205522 0.169943
1455 1 0.225864 0.222983 0.927028
1182 1 0.283653 0.267798 0.0573894
1720 1 0.475193 0.184138 0.149121
1367 1 0.610208 0.261072 0.124138
994 1 0.717567 0.196373 0.825847
1101 1 0.01959 0.283514 0.964621
740 1 0.246829 0.206372 0.0229643
1215 1 0.49388 0.171448 0.0303458
1116 1 0.693687 0.206212 0.0479948
1645 1 0.824598 0.373514 0.0638162
805 1 0.823916 0.31237 0.847091
155 1 0.992307 0.202774 0.103607
1098 1 0.0782701 0.371667 0.0935748
869 1 0.278222 0.339347 0.864509
1982 1 0.331518 0.291844 0.125246
965 1 0.588035 0.490241 0.993602
1218 1 0.869596 0.243816 0.124654
1790 1 0.0288591 0.335207 0.140318
2048 1 0.194138 0.288144 0.95815
743 1 0.440287 0.152156 0.081759
1522 1 0.503385 0.373314 0.931535
1532 1 0.720998 0.487006 0.0514488
1534 1 0.908754 0.36289 0.0582923
1569 1 0.752778 0.526574 0.158777
1885 1 0.118195 0.489622 0.0279518
1034 1 0.117581 0.341544 0.813579
1602 1 0.317614 0.416016 0.819601
943 1 0.351096 0.373111 0.00525557
1088 1 0.623808 0.339587 0.993676
1415 1 0.86691 0.252853 0.811733
1687 1 0.869475 0.471575 0.16642
1708 1 0.871243 0.310163 0.936953
782 1 0.201528 0.520099 0.873439
461 1 0.499782 0.437453 0.153993
1115 1 0.687747 0.575857 0.0651941
1760 1 0.669655 0.519558 0.92106
1957 1 0.866021 0.569614 0.9797
1510 1 0.840621 0.589172 0.068284
132 1 0.0346352 0.393826 0.199607
1080 1 0.161176 0.431311 0.890937
677 1 0.502638 0.491746 0.0975415
1468 1 0.482081 0.508951 0.00309646
1283 1 0.710345 0.570902 0.981234
1355 1 0.101254 0.460174 0.0992027
1324 1 0.172377 0.525804 0.105076
827 1 0.284761 0.645311 0.115069
1384 1 0.432951 0.424418 0.105263
72 1 0.614205 0.415902 0.984436
968 1 0.696799 0.589676 0.908189
206 1 0.959859 0.518429 0.826063
1394 1 0.889046 0.698313 0.984139
1097 1 0.050557 0.614408 0.0765186
151 1 0.364836 0.690671 0.00904016
1788 1 0.388357 0.578676 0.0231243
963 1 0.567826 0.620868 0.993965
1057 1 0.630676 0.734199 0.0102697
716 1 0.620843 0.56164 0.882377
2020 1 0.095843 0.540276 0.109782
1636 1 0.250138 0.608917 0.0559612
1014 1 0.321441 0.762424 0.91589
1690 1 0.75174 0.801916 0.0103579
148 1 0.760833 0.652984 0.0717045
1169 1 0.0789061 0.732973 0.0828279
1627 1 0.275844 0.739851 0.120464
440 1 0.428446 0.745344 0.140319
1780 1 0.432322 0.687821 0.758074
1691 1 0.51274 0.788596 0.959383
1390 1 0.700248 0.851483 0.0376418
1609 1 0.771151 0.836893 0.0882349
1938 1 0.960256 0.819618 0.914287
124 1 0.0770305 0.831004 0.208154
341 1 0.235025 0.904493 0.0144455
473 1 0.385654 0.882307 0.950704
1680 1 0.602423 0.969233 0.881432
475 1 0.618801 0.00637337 0.970057
696 1 0.054304 0.806869 0.0159825
971 1 0.249776 0.847733 0.941651
224 1 0.520834 0.980474 0.90158
1464 1 0.121887 0.00672808 0.157684
591 1 0.276362 0.679129 0.0417996
960 1 0.251259 0.777534 0.97176
453 1 0.376671 0.954575 0.92212
1649 1 0.419394 0.870658 0.0162314
700 1 0.501638 0.851165 0.0490579
597 1 0.725152 0.909076 0.991402
137 1 0.171254 0.916293 0.0610125
183 1 0.320855 0.660449 0.910889
243 1 0.565034 0.855512 0.97234
338 1 0.894343 0.97027 0.00842228
325 1 0.963105 0.906352 0.0516388
1389 1 0.15703 0.945467 0.198559
1713 1 0.127791 0.125963 0.221579
1051 1 0.155466 0.0555599 0.203951
1281 1 0.706895 0.0898034 0.0533983
628 1 0.90506 0.970236 0.180038
1200 1 0.987447 0.833247 0.0454033
1995 1 0.194918 0.134539 0.192048
1288 1 0.316268 0.990283 0.0408132
555 1 0.423528 0.959896 0.0713847
363 1 0.399898 0.0779977 0.117624
230 1 0.439115 0.0137583 0.895378
678 1 0.617932 0.0897355 0.967265
1672 1 0.792073 0.0881873 0.218478
450 1 1.0007 0.0781913 0.134711
1190 1 0.286855 0.112624 0.210574
1191 1 0.317695 0.161479 0.00302153
770 1 0.347167 0.118563 0.946319
647 1 0.52136 0.0309531 0.142417
1514 1 0.669778 0.139561 0.00833971
1733 1 0.819988 0.993273 0.16305
1095 1 0.935293 0.330068 0.320462
343 1 0.244702 0.169705 0.146112
1870 1 0.27422 0.281621 0.938346
627 1 0.685676 0.297086 0.0829761
505 1 0.895423 0.157861 0.218791
929 1 0.0797949 0.234118 0.00271839
1125 1 0.03956 0.142232 0.113581
1993 1 0.276666 0.246376 0.172782
265 1 0.369307 0.196267 0.2435
1546 1 0.744167 0.202273 0.107827
1971 1 0.507533 0.19337 0.896688
823 1 0.832982 0.29536 0.0507268
1792 1 0.868347 0.222897 0.0465924
711 1 0.985804 0.150287 0.175516
762 1 0.181485 0.356092 0.991541
1709 1 0.471827 0.288991 0.984304
1508 1 0.447874 0.363659 0.0612558
123 1 0.28417 0.135458 0.0808223
1946 1 0.789986 0.208938 0.0436154
1926 1 0.900693 0.545476 0.176545
697 1 0.768031 0.293995 0.95306
1660 1 0.970572 0.310782 0.0311173
2014 1 0.912117 0.570079 0.0936373
1950 1 0.988045 0.558492 0.105062
1423 1 0.038668 0.51408 0.0586858
1154 1 0.255921 0.55694 0.823919
1558 1 0.298359 0.361721 0.147011
1536 1 0.534112 0.250744 0.0368297
876 1 0.768191 0.42603 0.0197722
1977 1 0.811713 0.50953 0.100205
855 1 0.882225 0.470959 0.0903413
90 1 0.119806 0.532561 0.892251
1572 1 0.299635 0.471416 0.105353
1338 1 0.687255 0.506677 0.186971
616 1 0.95044 0.60818 0.154916
1900 1 0.559707 0.44083 0.202028
1470 1 0.882477 0.320805 0.123313
1112 1 0.149472 0.508674 0.175363
422 1 0.226549 0.473684 0.0773391
1092 1 0.223607 0.615415 0.310637
596 1 0.696297 0.398022 0.0173857
1456 1 0.746184 0.643073 0.99582
1442 1 0.84362 0.66507 0.88192
1823 1 0.133353 0.697062 0.0512108
1557 1 0.469302 0.547878 0.132837
986 1 0.570666 0.537134 0.121009
578 1 0.636179 0.630145 0.936759
581 1 0.772415 0.631638 0.174344
1631 1 0.049365 0.495253 0.161723
409 1 0.172647 0.636034 0.0802314
1108 1 0.157879 0.786756 0.0635514
577 1 0.544379 0.52835 0.0461359
407 1 0.877092 0.719736 0.131428
999 1 0.00999391 0.777949 0.950421
2045 1 0.00011571 0.734864 0.0643833
1585 1 0.177221 0.745394 0.213596
557 1 0.0170708 0.6156 0.99481
1128 1 0.399452 0.678471 0.166104
741 1 0.601952 0.663378 0.0543709
840 1 0.740725 0.785372 0.137196
1828 1 0.875682 0.778098 0.99498
92 1 0.0931539 0.661464 0.115628
683 1 0.503846 0.6632 0.0369984
1103 1 0.816338 0.821001 0.15054
821 1 0.881639 0.817685 0.926587
355 1 0.96781 0.615899 0.059256
1763 1 0.393484 0.755786 0.206394
1298 1 0.307823 0.920536 0.993765
1516 1 0.32575 0.756538 0.0711646
237 1 0.564574 0.787649 0.0577142
1959 1 0.262585 0.825449 0.157026
613 1 0.435235 0.815178 0.0980442
536 1 0.42695 0.818617 0.95875
593 1 0.396239 0.78453 0.0373915
1301 1 0.863625 0.900433 0.966822
521 1 0.932331 0.856112 0.978457
1429 1 0.769106 0.743125 0.0536983
2003 1 0.834096 0.803413 0.0573669
655 1 0.188817 0.84623 0.0129806
1674 1 0.197903 0.840935 0.107048
1513 1 0.199227 0.0513496 0.112648
1756 1 0.96039 0.824017 0.122272
353 1 0.0439509 0.85094 0.105839
398 1 0.964347 0.933902 0.967232
1047 1 0.204912 0.992519 0.166599
1875 1 0.187545 0.915846 0.135289
1420 1 0.332041 0.810499 0.187722
1809 1 0.46163 0.0304568 0.0956405
563 1 0.384622 0.973302 0.9976
785 1 0.672454 0.048525 0.925327
1862 1 0.412086 0.832019 0.165113
1913 1 0.59674 0.957598 0.102249
463 1 0.626894 0.885541 0.00875676
1903 1 0.744225 0.0291339 0.096515
2040 1 0.056665 0.89909 0.262337
859 1 0.0344276 0.0235734 0.170308
1529 1 0.236671 0.135501 0.309395
1374 1 0.213885 0.188273 0.239378
772 1 0.404271 0.152967 0.163206
1365 1 0.391253 0.0277501 0.0656465
854 1 0.745868 0.946451 0.191749
1462 1 0.656297 0.156172 0.102254
1647 1 0.679926 0.231175 0.142401
109 1 0.831845 0.217905 0.184908
1385 1 0.95059 0.109384 0.316331
643 1 0.362905 0.143324 0.075464
744 1 0.452077 0.10126 0.295574
541 1 0.571607 0.106155 0.0982996
350 1 0.961921 0.299927 0.17748
1425 1 0.101849 0.27929 0.93729
883 1 0.113674 0.339897 0.152256
30 1 0.218172 0.357191 0.165237
1279 1 0.374251 0.221768 0.0531654
1729 1 0.759229 0.386425 0.187083
1632 1 0.979351 0.342961 0.242991
1545 1 0.297769 0.204342 0.107206
514 1 0.416524 0.265495 0.10959
1135 1 0.561226 0.311141 0.182801
837 1 0.580267 0.31836 0.0618515
1582 1 0.899835 0.334361 0.239645
95 1 0.856806 0.301758 0.334566
269 1 0.111163 0.358387 0.955479
408 1 0.226026 0.456338 0.922768
545 1 0.249055 0.321308 0.104392
1702 1 0.589476 0.209001 0.985291
845 1 0.0906153 0.29462 0.0884822
390 1 0.207651 0.370324 0.0600446
252 1 0.267142 0.536989 0.0341939
1956 1 0.498319 0.547407 0.365195
1322 1 0.739942 0.400849 0.944136
1618 1 0.673445 0.435894 0.166378
1380 1 0.688767 0.37618 0.0998809
1795 1 0.274322 0.492997 0.857113
826 1 0.235937 0.477119 0.155057
844 1 0.288854 0.382296 0.0492454
1987 1 0.439047 0.350155 0.234292
1075 1 0.504308 0.371579 0.012765
925 1 0.745055 0.504909 0.955017
790 1 0.819233 0.425435 0.118609
622 1 0.970929 0.50247 0.277131
1754 1 0.357063 0.686251 0.0871956
1567 1 0.424786 0.671888 0.254664
569 1 0.711735 0.709595 0.128732
881 1 0.913559 0.422459 0.218694
1102 1 0.14175 0.567188 0.973144
251 1 0.457344 0.433016 0.032246
1571 1 0.72948 0.565927 0.29369
318 1 0.0690281 0.621563 0.278573
1726 1 0.0902122 0.553491 0.225622
421 1 0.115167 0.599731 0.0382468
1988 1 0.101351 0.721043 0.233276
1519 1 0.611428 0.556693 0.0614938
1916 1 0.801007 0.621221 0.272979
1336 1 0.899734 0.642299 0.0855569
1450 1 0.0336928 0.69507 0.261684
179 1 0.142707 0.82051 0.261554
1700 1 0.204533 0.707682 0.0974653
336 1 0.508779 0.680398 0.242654
892 1 0.666969 0.800622 0.141997
1239 1 0.625489 0.741397 0.102182
1428 1 0.886636 0.796344 0.121811
623 1 0.0599925 0.717122 0.164657
1354 1 0.384743 0.614978 0.237793
862 1 0.771158 0.79268 0.208754
546 1 0.689469 0.824424 0.246015
947 1 0.953129 0.745957 0.129648
1122 1 0.0235835 0.779151 0.128956
1605 1 0.292798 0.737849 0.199425
483 1 0.204981 0.775512 0.146374
1852 1 0.42458 0.7108 0.0482316
936 1 0.492788 0.742095 0.0639902
221 1 0.765358 0.932211 0.0515841
550 1 0.852526 0.915024 0.186788
1774 1 0.806681 0.740232 0.124213
1212 1 0.989886 0.750298 0.28867
1863 1 0.245978 0.980721 0.0053029
1339 1 0.307432 0.659163 0.188991
1876 1 0.405119 0.900881 0.120346
255 1 0.477709 0.591061 0.0142531
907 1 0.523382 0.602918 0.0932137
1220 1 0.64095 0.89509 0.0909659
1225 1 0.844475 0.723017 0.058371
1586 1 0.202795 0.883056 0.220034
1505 1 0.33789 0.920152 0.22311
1348 1 0.775957 0.991586 0.387228
1603 1 0.954619 0.95787 0.25438
1896 1 0.0475229 0.913459 0.0444296
1452 1 0.188024 1.00033 0.24837
1368 1 0.249541 0.101673 0.0201921
912 1 0.551554 0.91205 0.0392274
977 1 0.670845 0.0443406 0.123017
225 1 0.641868 0.804354 0.0433719
1070 1 0.58676 0.0679936 0.172928
1289 1 0.885986 0.866893 0.0417442
1880 1 0.110261 0.157189 0.320412
1240 1 0.569093 0.0680831 0.0159691
1991 1 0.00485272 0.912636 0.114415
1313 1 0.349606 0.261433 0.209224
2031 1 0.70608 0.843332 0.323887
1331 1 0.409294 0.0527849 0.188405
1189 1 0.50228 0.944312 0.0989585
1776 1 0.673544 0.045237 0.00164012
932 1 0.694681 0.171196 0.186587
1681 1 0.910853 0.0793434 0.22581
82 1 0.132243 0.200389 0.381274
340 1 0.399594 0.0577744 0.267689
587 1 0.320247 0.163023 0.168308
393 1 0.621202 0.150025 0.189581
280 1 0.623641 0.959626 0.254135
270 1 0.98058 0.957817 0.182201
549 1 0.0422808 0.0812034 0.316451
1565 1 0.175717 0.223171 0.314169
8 1 0.233754 0.27078 0.267249
383 1 0.367404 0.114094 0.216621
1497 1 0.545152 0.146849 0.177497
1639 1 0.103107 0.172392 0.150509
1886 1 0.0384015 0.256311 0.150282
665 1 0.188123 0.276882 0.19959
632 1 0.595704 0.138846 0.033652
506 1 0.685251 0.203186 0.952869
97 1 0.938977 0.259495 0.0949213
691 1 0.115484 0.220721 0.0734529
574 1 0.305948 0.456533 0.0215687
2018 1 0.364663 0.21946 0.148218
5 1 0.37779 0.344926 0.0904827
25 1 0.63601 0.311061 0.18124
667 1 0.792248 0.258491 0.105401
1353 1 0.568686 0.524815 0.230254
1396 1 0.82883 0.350786 0.277328
427 1 0.822548 0.443402 0.952455
888 1 0.890225 0.397184 0.12974
1888 1 0.0257257 0.259882 0.0664733
773 1 0.259177 0.32376 1.0018
1250 1 0.463443 0.43701 0.217998
1256 1 0.939277 0.49374 0.136626
1996 1 0.361083 0.449603 0.153088
1286 1 0.293758 0.415141 0.946795
1843 1 0.36187 0.525975 0.130439
789 1 0.450672 0.335392 0.134277
595 1 0.635117 0.571405 0.191656
607 1 0.805701 0.342836 0.137881
80 1 0.794414 0.46164 0.18356
138 1 0.958495 0.453791 0.0627506
1748 1 0.148717 0.379703 0.224251
830 1 0.231924 0.424637 -0.000340819
951 1 0.286759 0.584581 0.162236
1249 1 0.61106 0.491954 0.174778
281 1 0.75266 0.462217 0.114668
1330 1 0.848564 0.605647 0.214008
189 1 0.306438 0.495459 0.185405
1011 1 0.383659 0.59425 0.162693
721 1 0.824747 0.661131 0.106142
780 1 0.88995 0.825677 0.192989
1682 1 0.97319 0.528662 0.19339
1887 1 0.133235 0.591306 0.152629
1762 1 0.388704 0.626958 0.314956
337 1 0.500102 0.514668 0.197562
215 1 0.431296 0.484066 0.1572
6 1 0.630382 0.756267 0.196074
1679 1 0.755504 0.677915 0.244763
1050 1 0.991663 0.657403 0.209545
1944 1 0.475886 0.622808 0.294604
1009 1 0.768623 0.861872 0.25348
203 1 0.937338 0.809218 0.26273
1012 1 0.960916 0.827011 0.33375
1451 1 0.301626 0.775075 0.265087
413 1 0.742382 0.86156 0.172076
284 1 0.0329284 0.890032 0.180889
1487 1 0.283884 0.905906 0.0916554
2039 1 0.227336 0.697675 0.173888
1879 1 0.412439 0.616676 0.0885437
759 1 0.531917 0.551425 0.968856
354 1 0.69545 0.766359 0.302885
1819 1 0.897277 0.00568285 0.244348
1761 1 0.0692353 0.952352 0.185874
222 1 0.260912 0.927975 0.241627
924 1 0.62131 0.856759 0.322252
1765 1 0.676439 0.982428 0.0791275
920 1 0.623772 0.782469 0.283536
238 1 0.951297 0.771221 0.00624569
1983 1 0.117545 0.910545 0.00215158
1909 1 0.320207 0.878748 0.156734
1297 1 0.46243 0.918492 0.176116
380 1 0.551559 0.838598 0.265959
1146 1 0.574792 0.826725 0.123511
527 1 0.552415 0.707178 0.100935
29 1 0.805371 0.985271 0.0900389
128 1 0.131484 0.900571 0.249314
1810 1 0.601986 0.924003 0.171504
642 1 0.655659 0.872808 0.169954
1453 1 0.713141 0.886014 0.108587
850 1 0.791387 0.905316 0.134907
1356 1 0.669093 0.99359 0.301362
1143 1 0.061351 0.130973 0.261164
1082 1 0.278916 0.0393666 0.0886593
1162 1 0.23487 0.962416 0.0823792
601 1 0.350544 0.739049 0.147999
992 1 0.46561 0.732839 0.208262
2009 1 0.501867 0.864432 0.127387
885 1 0.922118 0.949792 0.0997227
120 1 0.97246 0.884615 0.245392
100 1 0.244896 0.0608731 0.327806
1561 1 0.415462 0.982141 0.141966
1997 1 0.538802 0.951685 0.161893
464 1 0.686376 0.0111731 0.230824
1506 1 0.740725 0.0165965 0.281821
914 1 0.891082 0.0582064 0.298948
1712 1 0.049165 0.196688 0.206552
59 1 0.408566 0.0745251 0.351682
61 1 0.443226 0.0102251 0.322087
423 1 0.563606 0.00609933 0.212484
169 1 0.686631 0.0901721 0.208528
283 1 0.745574 0.0213322 0.174211
1643 1 0.935358 0.223028 0.167221
332 1 0.0448932 0.0511855 0.241974
188 1 0.0767121 0.094179 0.168095
754 1 0.311468 0.243499 0.278498
1648 1 0.549848 0.0266459 0.0745628
470 1 0.598173 0.101723 0.31
1759 1 0.633153 0.0746409 0.0603269
1770 1 0.122838 0.279058 0.355236
847 1 0.47005 0.152665 0.230224
415 1 0.273953 0.307021 0.209037
157 1 0.516593 0.217344 0.238276
528 1 0.534277 0.258289 0.128133
605 1 0.977983 0.116081 0.244611
1402 1 0.962056 0.391825 0.159018
1040 1 0.925967 0.269759 0.262679
99 1 0.216288 0.347182 0.271114
1037 1 0.426233 0.223058 0.200423
1267 1 0.75576 0.22541 0.211848
1042 1 0.158272 0.406843 0.118101
1335 1 0.497221 0.301944 0.0775491
131 1 0.741897 0.29412 0.155184
976 1 0.986853 0.239353 0.228155
411 1 0.137031 0.402434 0.0391928
1596 1 0.115402 0.252727 0.148508
1699 1 0.281377 0.420758 0.195293
584 1 0.634938 0.464661 0.244052
675 1 0.681703 0.648645 0.0920427
1752 1 0.828137 0.405851 0.412425
511 1 0.152842 0.363046 0.311933
1463 1 0.0341824 0.468152 0.251706
1474 1 0.408614 0.398559 0.178935
1161 1 0.525908 0.361244 0.130706
860 1 0.743142 0.323926 0.228232
1499 1 0.763579 0.396017 0.279062
1373 1 0.986182 0.454533 0.189472
625 1 0.0940246 0.428394 0.167033
436 1 0.36729 0.434157 0.0647329
524 1 0.417789 0.559861 0.292753
1187 1 0.457584 0.6266 0.171435
842 1 0.828451 0.449887 0.25983
763 1 0.974443 0.413048 0.264981
1611 1 0.887489 0.487837 0.308028
1688 1 0.11895 0.463512 0.234492
1692 1 0.211029 0.548369 0.202281
838 1 0.202594 0.87607 0.378138
1906 1 0.943259 0.519572 0.347441
1947 1 0.0826601 0.404607 0.271547
261 1 0.349935 0.546808 0.217639
803 1 0.546662 0.614851 0.252978
1287 1 0.533766 0.578724 0.176367
416 1 0.789146 0.559761 0.22889
496 1 0.874163 0.566857 0.299814
226 1 0.0158496 0.687781 0.340127
1560 1 0.16504 0.669575 0.256934
1230 1 0.532112 0.659921 0.170671
969 1 0.849218 0.684943 0.204117
1090 1 0.925151 0.586148 0.242426
44 1 0.209639 0.621501 0.152922
1675 1 0.162969 0.822696 0.183198
1068 1 0.1338 0.735857 0.132723
2011 1 0.432613 0.560819 0.211696
210 1 0.616232 0.679882 0.156401
322 1 0.549937 0.729007 0.30327
1595 1 0.677708 0.671602 0.196348
1745 1 0.771659 0.754538 0.27427
1869 1 0.927725 0.737686 0.217679
1018 1 0.0848623 0.639416 0.204735
559 1 0.237439 0.721996 0.249639
268 1 0.331956 0.642951 0.38823
1974 1 0.476731 0.665838 0.109223
931 1 0.676295 0.944388 0.143136
997 1 0.849116 0.763348 0.204668
846 1 0.820454 0.792689 0.4024
1183 1 0.949035 0.681772 0.300638
1777 1 0.496864 0.774432 0.14576
1025 1 0.592099 0.828084 0.198265
774 1 0.991163 0.823166 0.190565
1659 1 0.118277 0.860226 0.0693291
542 1 0.0723475 0.776983 0.288126
707 1 0.419556 0.821199 0.240858
1976 1 0.387031 0.812345 0.3114
599 1 0.678819 0.740084 0.410928
1683 1 0.783913 0.843692 0.341896
970 1 0.193967 0.925771 0.28299
1857 1 0.209828 0.850758 0.290314
186 1 0.236986 0.799762 0.22852
1268 1 0.626072 0.99739 0.171823
91 1 0.846275 0.892687 0.373497
1323 1 0.335894 0.957162 0.12248
870 1 0.371275 0.879079 0.287384
2028 1 0.5388 0.893706 0.214769
50 1 0.867646 0.0285793 0.390543
1710 1 0.107796 0.93792 0.107593
745 1 0.316058 0.0620161 0.262888
672 1 0.552275 0.0967172 0.24074
610 1 0.792013 0.938718 0.25115
1999 1 0.756184 0.915006 0.320166
656 1 0.959541 0.0308939 0.198283
1479 1 0.973517 0.0374745 0.275267
1948 1 0.138768 0.197616 0.248978
703 1 0.318927 0.0213136 0.174867
361 1 0.45872 0.0610359 0.436045
634 1 0.68856 0.925024 0.232237
1838 1 0.804255 0.0538115 0.321995
147 1 0.0719143 0.947544 0.359205
1491 1 0.995588 0.980425 0.341435
1063 1 0.313053 0.0597032 0.361869
1650 1 0.584692 0.194791 0.14255
1002 1 0.680141 0.0717356 0.286951
693 1 0.821446 0.97357 0.312981
687 1 0.0373483 0.241786 0.376544
787 1 0.845399 0.252255 0.259934
560 1 0.123074 0.0423725 0.384282
640 1 0.397759 0.168786 0.343795
2026 1 0.396117 0.261095 0.301244
1214 1 0.591132 0.173835 0.254893
257 1 0.647667 0.0523032 0.348989
14 1 0.81564 0.18116 0.251675
285 1 0.931596 0.166042 0.364951
1207 1 0.159663 0.29245 0.285334
1140 1 0.622833 0.23672 0.196257
938 1 0.750971 0.121885 0.276381
424 1 0.00455932 0.188262 0.280918
698 1 0.296249 0.315872 0.283411
835 1 0.333633 0.453939 0.244195
1469 1 0.637303 0.38533 0.331649
1816 1 0.769639 0.271334 0.285505
1942 1 0.265736 0.428179 0.275168
489 1 0.478314 0.273251 0.177385
158 1 0.388853 0.319987 0.183228
1908 1 0.576593 0.397372 0.282491
162 1 0.0196594 0.442138 0.116669
987 1 0.170202 0.421326 0.363502
1530 1 0.686948 0.378522 0.214715
1100 1 0.808192 0.294318 0.203467
1280 1 0.810175 0.416825 0.33704
1431 1 0.748673 0.442115 0.403076
981 1 0.930523 0.403117 0.475686
69 1 0.201102 0.434525 0.212123
1495 1 0.220878 0.404037 0.426985
808 1 0.242601 0.409623 0.112736
166 1 0.698732 0.610227 0.237444
1902 1 0.721557 0.510382 0.42576
1388 1 0.100398 0.483863 0.316181
1684 1 0.234763 0.458101 0.341587
1363 1 0.364244 0.450147 0.394607
150 1 0.694435 0.422524 0.29428
1633 1 0.792797 0.578219 0.33772
1341 1 0.920207 0.671629 0.178553
1238 1 0.868563 0.509689 0.235942
1326 1 0.161952 0.43745 0.290283
1345 1 0.153113 0.57402 0.297354
765 1 0.175291 0.512208 0.262666
303 1 0.622992 0.63575 0.233291
1061 1 0.793145 0.513448 0.296694
933 1 0.764976 0.718877 0.184805
1156 1 0.876307 0.371609 0.361959
1417 1 0.232571 0.645471 0.231757
376 1 0.398733 0.483278 0.225499
1493 1 0.433372 0.526242 0.0649803
1641 1 0.57002 0.561287 0.430703
654 1 0.117953 0.657077 0.330609
1626 1 0.15452 0.673695 0.172675
728 1 0.371384 0.693812 0.427931
1952 1 0.608164 0.612262 0.116935
510 1 0.88622 0.651036 0.263422
1778 1 0.961159 0.584526 0.407712
1004 1 0.0951721 0.733026 0.346903
1945 1 0.26486 0.604491 0.374794
1747 1 0.470889 0.696415 0.308306
46 1 0.930561 0.888751 0.167867
433 1 0.983029 0.72823 0.458455
1604 1 0.0279325 0.593871 0.163529
297 1 0.144182 0.745372 0.291824
908 1 0.420445 0.753182 0.275277
1717 1 0.609106 0.569387 0.279117
60 1 0.856148 0.697927 0.434175
820 1 0.095057 0.89385 0.41338
1049 1 0.335146 0.713367 0.355227
684 1 0.326126 0.790874 0.401032
1067 1 0.495392 0.782112 0.267966
725 1 0.538948 0.754898 0.208608
1883 1 0.736957 0.785394 0.363491
1734 1 0.702465 0.743463 0.230941
868 1 0.953229 0.870131 0.407205
1224 1 0.0379621 0.771682 0.215775
86 1 0.610802 0.690915 0.340312
1503 1 0.866422 0.900543 0.265172
49 1 0.994606 0.900397 0.339192
1922 1 0.255156 0.922039 0.162944
1698 1 0.436861 0.867811 0.338581
1746 1 0.34068 0.701568 0.254767
843 1 0.856769 0.870547 0.108801
248 1 0.852804 0.951283 0.422091
241 1 0.0553781 0.850469 0.330773
1165 1 0.629421 0.881011 0.249198
1716 1 0.896418 0.980606 0.326901
651 1 0.0854941 0.98735 0.422511
105 1 0.928358 0.966945 0.387868
42 1 0.105201 0.877771 0.155709
1465 1 0.322741 0.945929 0.293599
352 1 0.389463 0.939556 0.336549
1485 1 0.504532 0.0406768 0.283711
1401 1 0.72202 0.045343 0.356274
77 1 0.819764 0.00840064 0.236934
530 1 0.221849 0.0715546 0.255143
1461 1 0.259184 0.00239628 0.223287
586 1 0.375848 0.984276 0.244813
1772 1 0.465527 0.994343 0.201255
1036 1 0.294951 0.168027 0.358609
508 1 0.361917 0.868887 0.362123
264 1 0.520328 0.982935 0.533098
1252 1 0.794836 0.107645 0.445976
141 1 0.156735 0.130631 0.424938
1850 1 0.0696886 0.0122903 0.307153
13 1 0.322835 0.273199 0.403222
1866 1 0.34369 0.318384 0.348219
219 1 0.623788 0.0541518 0.238984
1278 1 0.688306 0.0190774 0.424321
1447 1 0.704255 0.0958514 0.419462
1383 1 0.313812 0.140271 0.28864
136 1 0.30865 0.417164 0.353721
107 1 0.372671 0.31969 0.266559
1936 1 0.542323 0.243833 0.31707
836 1 0.0806177 0.230084 0.308109
467 1 0.0223709 0.169134 0.350137
108 1 0.0879365 0.331291 0.294469
1663 1 0.251834 0.165758 0.444452
1979 1 0.479648 0.286702 0.261872
1443 1 0.572472 0.28051 0.251815
1621 1 0.688227 0.26612 0.222249
1033 1 0.74181 0.196601 0.29031
144 1 0.960895 0.229971 0.328746
1253 1 0.966129 0.309671 0.400183
1593 1 0.059829 0.330177 0.366326
1486 1 0.111453 0.265958 0.228638
1008 1 0.390256 0.285737 0.452948
1524 1 0.298596 0.501061 0.323064
181 1 0.518692 0.377966 0.227484
1266 1 0.642062 0.470789 0.324488
449 1 0.925978 0.278619 0.480056
1727 1 0.409035 0.416931 0.287293
1554 1 0.425504 0.334689 0.319371
1842 1 0.649832 0.53421 0.122762
1872 1 0.0919151 0.611751 0.388275
437 1 0.291733 0.351041 0.390975
94 1 0.230974 0.651504 0.438138
996 1 0.480067 0.426057 0.295943
1722 1 0.629055 0.468674 0.401373
1786 1 0.46793 0.498475 0.277646
872 1 0.0206041 0.384754 0.330068
747 1 0.114666 0.686191 0.406323
948 1 0.228049 0.535062 0.32904
62 1 0.305029 0.540769 0.393413
1483 1 0.371555 0.504246 0.337842
983 1 0.604442 0.53438 0.359381
523 1 0.704673 0.593567 0.146693
451 1 0.651136 0.530548 0.439412
1925 1 0.892388 0.405912 0.2942
152 1 0.10292 0.473308 0.395855
906 1 0.155695 0.530531 0.360098
1221 1 0.563157 0.60905 0.339074
1094 1 0.679168 0.544568 0.370507
79 1 0.722777 0.365035 0.336994
223 1 0.0573112 0.309764 0.203737
286 1 0.00362888 0.587614 0.254447
76 1 0.333121 0.569522 0.311781
378 1 0.406715 0.523011 0.574013
362 1 0.734426 0.636126 0.318283
1731 1 0.734442 0.482208 0.335583
1167 1 0.811492 0.69122 0.298301
1424 1 0.939549 0.509061 0.46433
1445 1 0.206959 0.705008 0.319895
1814 1 0.291988 0.654293 0.312296
444 1 0.451856 0.627204 0.381906
1846 1 0.412014 0.691378 0.356829
898 1 0.586807 0.745982 0.506665
1210 1 0.664473 0.678065 0.280294
1303 1 0.0159032 0.611356 0.353198
1757 1 0.195134 0.7053 0.397804
871 1 0.162826 0.596952 0.22701
1251 1 0.595462 0.718789 0.249002
1893 1 0.859719 0.631452 0.338205
824 1 0.903196 0.812555 0.390201
1096 1 0.0638932 0.820139 0.451074
4 1 0.143941 0.834094 0.416068
1023 1 0.600164 0.676412 0.456109
692 1 0.871751 0.730934 0.276883
1758 1 0.0582394 0.700392 0.499476
412 1 0.0166371 0.824188 0.264374
776 1 0.398192 0.836984 0.583228
1399 1 0.627431 0.697132 0.55576
1921 1 0.769016 0.693656 0.442421
1377 1 0.286997 0.857665 0.251485
1205 1 0.375894 0.765547 0.554368
922 1 0.23433 0.748301 0.604799
382 1 0.280071 0.874077 0.38807
10 1 0.60142 0.863608 0.393513
2017 1 0.836019 0.825863 0.247603
331 1 0.827151 0.786617 0.321605
1261 1 0.00586836 0.936823 0.407955
85 1 0.148278 0.956202 0.387111
974 1 0.910286 0.762698 0.336589
228 1 0.425162 0.920635 0.252533
1736 1 0.63253 0.771106 0.357521
1978 1 0.493124 0.827521 0.200547
275 1 0.916763 0.982488 0.537369
400 1 0.923028 0.908088 0.312168
1958 1 0.12721 0.96124 0.301429
1157 1 0.493501 0.885907 0.277189
1744 1 0.517658 0.14251 0.294078
167 1 0.508703 0.828042 0.374907
258 1 0.751915 0.906676 0.406567
799 1 0.995734 0.100053 0.384735
267 1 0.177712 0.0181983 0.321675
1793 1 0.247418 0.986518 0.296729
1972 1 0.354519 0.0148232 0.314017
598 1 0.460148 0.137697 0.38856
704 1 0.80329 0.0209066 0.453428
1867 1 0.986474 0.980994 0.47182
674 1 0.379575 0.00835978 0.389075
308 1 0.486548 0.0728575 0.197109
368 1 0.907663 0.00990132 0.454128
1917 1 0.0387354 0.0351154 0.380176
1500 1 0.48605 0.962566 0.264757
1543 1 0.588423 0.0146714 0.297794
296 1 0.689714 0.123108 0.565305
646 1 0.891662 0.186817 0.295489
1124 1 0.144962 0.132278 0.530287
1860 1 0.309708 0.132573 0.476598
1562 1 0.38132 0.0914882 0.459804
688 1 0.658741 0.119251 0.481324
731 1 0.805362 0.251042 0.367558
589 1 0.260518 0.10815 0.385917
715 1 0.351441 0.348615 0.451802
342 1 0.484389 0.0638565 0.364721
1882 1 0.61147 0.19758 0.362431
1236 1 0.0122951 0.291365 0.290925
1028 1 0.88786 0.235097 0.356952
985 1 0.161186 0.207447 0.496445
1622 1 0.565808 0.24593 0.393325
103 1 0.636449 0.330341 0.258378
410 1 0.629322 0.121827 0.382048
160 1 0.215209 0.184084 0.379205
334 1 0.23681 0.381935 0.33867
119 1 0.325044 0.368805 0.225222
554 1 0.549761 0.111986 0.411699
22 1 0.867952 0.171755 0.405876
1929 1 0.685235 0.302543 0.372257
1030 1 0.264168 0.235558 0.336239
1211 1 0.444897 0.360672 0.499189
68 1 0.405988 0.279645 0.373958
1667 1 0.486611 0.292097 0.338946
1294 1 0.490979 0.368236 0.354017
1010 1 0.696657 0.296354 0.298223
239 1 0.808209 0.415953 0.509505
1478 1 0.985382 0.470524 0.403944
1084 1 0.26375 0.479399 0.41684
93 1 0.257284 0.512749 0.253979
170 1 0.433344 0.46001 0.342166
474 1 0.683156 0.452025 0.548643
135 1 0.955847 0.443178 0.336443
240 1 0.113927 0.629303 0.457376
652 1 0.95062 0.597655 0.314843
1175 1 0.294669 0.704295 0.450712
1895 1 0.282729 0.567316 0.470808
1076 1 0.355887 0.55547 0.445341
1539 1 0.840638 0.399262 0.187603
1578 1 0.0317646 0.650275 0.433704
778 1 0.17203 0.624472 0.379598
1928 1 0.561264 0.611832 0.496404
896 1 0.549778 0.486836 0.380158
1137 1 0.799706 0.653456 0.376598
1005 1 0.725645 0.615557 0.392134
1177 1 0.895589 0.591714 0.598114
1689 1 0.143526 0.762836 0.43764
1613 1 0.516852 0.688396 0.369937
710 1 0.573187 0.81011 0.448977
1705 1 0.527376 0.703329 0.448904
1696 1 0.692907 0.748579 0.490355
1806 1 0.839414 0.722865 0.36412
954 1 0.0746842 0.562654 0.479088
928 1 0.199914 0.586418 0.522125
1610 1 0.397094 0.621656 0.457542
1599 1 0.455508 0.7036 0.414144
1598 1 0.753255 0.707038 0.347103
955 1 0.853897 0.541935 0.437441
418 1 0.934823 0.656808 0.370145
746 1 0.205232 0.78876 0.506134
637 1 0.88415 0.839359 0.311812
104 1 0.6849 0.674253 0.360553
471 1 0.927962 0.730529 0.403048
2033 1 0.135323 0.644013 0.611397
1940 1 0.388336 0.826022 0.418805
1811 1 0.549891 0.68075 0.532447
1078 1 0.981872 0.650995 0.500209
122 1 0.116843 0.869031 0.484752
730 1 0.0971461 0.798216 0.620628
1315 1 0.475283 0.759849 0.347462
1704 1 0.524164 0.885648 0.438522
87 1 0.906315 0.827613 0.478445
466 1 0.20915 0.981769 0.43503
1320 1 0.546628 0.760067 0.373287
727 1 0.927137 0.923653 0.4596
1594 1 0.0257187 0.867502 0.39879
588 1 0.131626 0.0843298 0.299466
1408 1 0.264933 0.897578 0.317097
163 1 0.286686 0.815447 0.340622
849 1 0.557857 0.944944 0.476196
659 1 0.943652 0.0344504 0.356793
1905 1 0.535908 0.173031 0.363515
161 1 0.603118 0.954924 0.346554
553 1 0.680354 0.918385 0.310826
1054 1 0.699265 0.964409 0.371757
1020 1 0.837362 0.104761 0.508965
1662 1 0.263858 0.00571235 0.385026
775 1 0.289691 0.939648 0.455444
1910 1 0.409408 0.932669 0.41238
503 1 0.45911 0.995924 0.397203
330 1 0.554641 0.874497 0.591845
1436 1 0.621347 0.921501 0.547575
356 1 0.717453 -2.96528e-05 0.561807
1421 1 0.817337 0.161508 0.337102
639 1 0.307939 0.0675076 0.440089
360 1 0.356639 0.1504 0.4074
1306 1 0.558934 0.0555723 0.359609
857 1 0.590965 0.0869598 0.619199
67 1 0.768825 0.104188 0.368297
1912 1 0.843044 0.236525 0.439403
867 1 0.856905 0.0942893 0.362712
791 1 0.0898533 0.0826542 0.518847
1006 1 0.101702 0.249422 0.515828
1920 1 0.356152 0.973689 0.460789
1441 1 0.617591 0.0492927 0.417106
2 1 0.525493 0.190409 0.45215
1454 1 0.528251 0.987042 0.331143
63 1 0.45748 0.194527 0.293337
748 1 0.752252 0.184345 0.365104
388 1 0.179042 0.112552 0.353849
211 1 0.101577 0.152838 0.470809
1694 1 0.455296 0.128863 0.469288