ITEM: TIMESTEP
100000
ITEM: NUMBER OF ATOMS
400
ITEM: BOX BOUNDS pp pp pp
0.0000000000000000e+00 1.9069251784911849e+01
0.0000000000000000e+00 1.9069251784911849e+01
-4.7673129462279618e-01 4.7673129462279618e-01
ITEM: ATOMS id type xs ys zs
196 1 0.251147 0.0289629 0.5
94 1 0.140584 0.0108218 0.5
100 1 0.199443 0.0272529 0.5
9 1 0.00481891 0.0392235 0.5
5 1 0.0547246 0.0481699 0.5
99 1 0.111188 0.0641607 0.5
107 1 0.164301 0.0700416 0.5
53 1 0.088442 0.481074 0.5
7 1 0.0187468 0.0923637 0.5
10 1 0.0761506 0.100911 0.5
111 1 0.215224 0.0758268 0.5
8 1 0.0388985 0.140726 0.5
101 1 0.126129 0.111025 0.5
106 1 0.175428 0.118405 0.5
20 1 0.240744 0.11757 0.5
22 1 0.0928318 0.152806 0.5
14 1 0.143712 0.158094 0.5
15 1 0.196657 0.16432 0.5
11 1 0.00933174 0.186657 0.5
13 1 0.0578213 0.192619 0.5
24 1 0.115047 0.200541 0.5
19 1 0.168168 0.209143 0.5
17 1 0.0239846 0.24585 0.5
116 1 0.225289 0.215877 0.5
151 1 0.196399 0.491647 0.5
28 1 0.087772 0.245452 0.5
18 1 0.144291 0.253284 0.5
25 1 0.197084 0.262835 0.5
54 1 0.142561 0.485062 0.5
32 1 0.0514997 0.286996 0.5
38 1 0.106996 0.293082 0.5
23 1 0.160847 0.301627 0.5
29 1 0.222733 0.307624 0.5
36 1 0.0260936 0.331945 0.5
37 1 0.0753989 0.335288 0.5
44 1 0.12818 0.342935 0.5
33 1 0.181103 0.351464 0.5
34 1 0.236364 0.356768 0.5
42 1 0.0473646 0.379425 0.5
43 1 0.0961671 0.382786 0.5
50 1 0.145825 0.391506 0.5
46 1 0.0168577 0.424052 0.5
45 1 0.200284 0.399173 0.5
48 1 0.0689578 0.431097 0.5
49 1 0.118918 0.436011 0.5
55 1 0.172262 0.441728 0.5
141 1 0.222703 0.445828 0.5
47 1 0.035064 0.472287 0.5
147 1 0.247065 0.495521 0.5
97 1 0.0900007 0.0115959 0.5
117 1 0.246858 0.169773 0.5
98 1 0.0415212 0.996631 0.5
52 1 0.0564024 0.524257 0.5
89 1 0.179878 0.979614 0.5
58 1 0.112545 0.528995 0.5
59 1 0.164184 0.535745 0.5
146 1 0.218078 0.538545 0.5
360 1 0.0195532 0.560317 0.5
57 1 0.0791109 0.568733 0.5
63 1 0.127404 0.581333 0.5
156 1 0.176554 0.586954 0.5
51 1 0.0428996 0.61644 0.5
62 1 0.094561 0.622442 0.5
60 1 0.145867 0.631203 0.5
157 1 0.230477 0.588737 0.5
90 1 0.2288 0.973393 0.5
68 1 0.0612706 0.665998 0.5
64 1 0.112936 0.671531 0.5
161 1 0.200065 0.630247 0.5
66 1 0.0285269 0.70452 0.5
70 1 0.163319 0.679176 0.5
166 1 0.220644 0.675939 0.5
61 1 0.0787105 0.716349 0.5
65 1 0.134867 0.723084 0.5
73 1 0.186055 0.728967 0.5
71 1 0.0524365 0.760929 0.5
69 1 0.105884 0.764845 0.5
72 1 0.159146 0.772696 0.5
74 1 0.237468 0.727657 0.5
76 1 0.0141263 0.804025 0.5
67 1 0.0675469 0.813148 0.5
77 1 0.122086 0.812963 0.5
79 1 0.211082 0.783761 0.5
82 1 0.0344077 0.85524 0.5
83 1 0.172526 0.820346 0.5
80 1 0.225618 0.830355 0.5
81 1 0.0920569 0.856079 0.5
78 1 0.145607 0.865662 0.5
84 1 0.19638 0.87216 0.5
93 1 0.132138 0.95742 0.5
396 1 0.0557937 0.900742 0.5
88 1 0.108998 0.909191 0.5
87 1 0.161778 0.913068 0.5
85 1 0.21043 0.927799 0.5
91 1 0.0221709 0.93819 0.5
92 1 0.0812963 0.953181 0.5
372 1 0.00823195 0.65667 0.5
40 1 0.255008 0.404068 0.5
249 1 0.477069 0.433339 0.5
261 1 0.492633 0.481928 0.5
109 1 0.303501 0.02995 0.5
104 1 0.352813 0.0457981 0.5
114 1 0.404115 0.054803 0.5
125 1 0.4641 0.0693484 0.5
108 1 0.27529 0.0746838 0.5
113 1 0.323341 0.0890227 0.5
119 1 0.372859 0.0982723 0.5
120 1 0.431958 0.108524 0.5
225 1 0.48479 0.115519 0.5
112 1 0.289825 0.135005 0.5
123 1 0.34125 0.137021 0.5
124 1 0.396064 0.145755 0.5
110 1 0.384981 0.00629507 0.5
231 1 0.453087 0.153654 0.5
118 1 0.309691 0.179564 0.5
128 1 0.364072 0.187435 0.5
130 1 0.414456 0.195133 0.5
232 1 0.464679 0.202518 0.5
122 1 0.277452 0.220209 0.5
127 1 0.328792 0.22938 0.5
129 1 0.380131 0.236277 0.5
237 1 0.435795 0.245143 0.5
145 1 0.440197 0.471296 0.5
121 1 0.299974 0.272157 0.5
132 1 0.350643 0.27893 0.5
135 1 0.408986 0.288588 0.5
35 1 0.27157 0.314026 0.5
126 1 0.321525 0.323706 0.5
133 1 0.372724 0.326338 0.5
238 1 0.460754 0.299195 0.5
244 1 0.42809 0.33732 0.5
251 1 0.481755 0.346262 0.5
131 1 0.293835 0.364364 0.5
137 1 0.346164 0.370538 0.5
140 1 0.397311 0.376484 0.5
243 1 0.451118 0.386636 0.5
239 1 0.487989 0.256892 0.5
136 1 0.319071 0.413086 0.5
134 1 0.368336 0.420939 0.5
139 1 0.421689 0.428017 0.5
39 1 0.281312 0.453494 0.5
138 1 0.332984 0.462885 0.5
143 1 0.390752 0.468031 0.5
115 1 0.437199 0.0166272 0.5
219 1 0.493838 0.024974 0.5
30 1 0.247402 0.267454 0.5
207 1 0.417371 0.9663 0.5
153 1 0.322201 0.54726 0.5
144 1 0.412052 0.514956 0.5
150 1 0.460651 0.524408 0.5
152 1 0.268523 0.541141 0.5
149 1 0.376102 0.553442 0.5
155 1 0.428853 0.563463 0.5
160 1 0.484866 0.576484 0.5
158 1 0.345987 0.5929 0.5
154 1 0.396351 0.601603 0.5
163 1 0.287302 0.593943 0.5
170 1 0.363183 0.640818 0.5
159 1 0.450771 0.613673 0.5
105 1 0.471571 0.978014 0.5
102 1 0.280447 0.977523 0.5
164 1 0.310535 0.639461 0.5
279 1 0.41488 0.651876 0.5
175 1 0.470165 0.659858 0.5
167 1 0.271845 0.684656 0.5
169 1 0.380173 0.687205 0.5
173 1 0.430908 0.700017 0.5
174 1 0.486294 0.708969 0.5
168 1 0.329868 0.684573 0.5
172 1 0.390936 0.734013 0.5
179 1 0.451996 0.744065 0.5
75 1 0.261639 0.778184 0.5
171 1 0.291333 0.732077 0.5
177 1 0.341634 0.741843 0.5
178 1 0.41657 0.780673 0.5
103 1 0.334426 0.987637 0.5
176 1 0.31823 0.786211 0.5
183 1 0.369159 0.798246 0.5
188 1 0.469903 0.793542 0.5
181 1 0.282714 0.835697 0.5
182 1 0.333849 0.845467 0.5
193 1 0.429153 0.829294 0.5
189 1 0.476779 0.843777 0.5
198 1 0.38999 0.865107 0.5
194 1 0.442655 0.880678 0.5
148 1 0.3585 0.508693 0.5
186 1 0.299703 0.886268 0.5
187 1 0.354199 0.900575 0.5
199 1 0.404797 0.914911 0.5
195 1 0.455095 0.930006 0.5
191 1 0.262544 0.932011 0.5
192 1 0.31577 0.936507 0.5
197 1 0.368685 0.95081 0.5
200 1 0.493335 0.89091 0.5
142 1 0.300663 0.501467 0.5
162 1 0.252142 0.636013 0.5
95 1 0.248484 0.875025 0.5
214 1 0.546813 0.0378947 0.5
215 1 0.601593 0.0469472 0.5
248 1 0.734631 0.245761 0.5
210 1 0.65969 0.0548891 0.5
222 1 0.707314 0.0429768 0.5
213 1 0.51331 0.0751406 0.5
226 1 0.56601 0.08699 0.5
228 1 0.624794 0.0941942 0.5
223 1 0.673159 0.102817 0.5
224 1 0.728644 0.0973395 0.5
220 1 0.535375 0.125599 0.5
221 1 0.591658 0.13431 0.5
229 1 0.642438 0.142724 0.5
284 1 0.737117 0.472522 0.5
234 1 0.556173 0.172379 0.5
227 1 0.608199 0.18064 0.5
230 1 0.696501 0.145531 0.5
240 1 0.525071 0.213283 0.5
242 1 0.578549 0.222492 0.5
236 1 0.666841 0.187213 0.5
337 1 0.720811 0.196155 0.5
241 1 0.629099 0.226857 0.5
341 1 0.685599 0.234568 0.5
267 1 0.54386 0.490746 0.5
235 1 0.54686 0.262191 0.5
246 1 0.597924 0.269605 0.5
247 1 0.647548 0.277561 0.5
254 1 0.702534 0.283386 0.5
245 1 0.513743 0.304914 0.5
257 1 0.564325 0.307601 0.5
253 1 0.610518 0.3181 0.5
264 1 0.541321 0.35105 0.5
258 1 0.591137 0.369153 0.5
252 1 0.669582 0.323083 0.5
259 1 0.719151 0.330864 0.5
217 1 0.749921 0.00133423 0.5
270 1 0.644187 0.369152 0.5
265 1 0.699058 0.379653 0.5
256 1 0.553753 0.401494 0.5
263 1 0.615209 0.413639 0.5
276 1 0.666168 0.418497 0.5
271 1 0.719103 0.427406 0.5
255 1 0.526749 0.443337 0.5
262 1 0.58057 0.449448 0.5
269 1 0.634164 0.461786 0.5
277 1 0.688118 0.469505 0.5
250 1 0.504056 0.390686 0.5
203 1 0.645741 0.00455931 0.5
233 1 0.500904 0.165643 0.5
333 1 0.749842 0.142676 0.5
216 1 0.69645 0.990553 0.5
273 1 0.567758 0.539959 0.5
208 1 0.523749 0.986949 0.5
275 1 0.65617 0.510789 0.5
282 1 0.620994 0.550446 0.5
274 1 0.673614 0.558998 0.5
373 1 0.72794 0.564375 0.5
281 1 0.535285 0.580417 0.5
286 1 0.586019 0.588461 0.5
287 1 0.642004 0.596556 0.5
288 1 0.693566 0.605202 0.5
291 1 0.551167 0.631729 0.5
292 1 0.60794 0.640287 0.5
283 1 0.706826 0.514456 0.5
285 1 0.523215 0.671471 0.5
298 1 0.572374 0.67712 0.5
294 1 0.660921 0.645192 0.5
290 1 0.712228 0.655639 0.5
297 1 0.535516 0.720885 0.5
293 1 0.625133 0.688206 0.5
289 1 0.674157 0.695861 0.5
381 1 0.727879 0.702764 0.5
306 1 0.590629 0.725955 0.5
299 1 0.64446 0.735721 0.5
295 1 0.69381 0.750007 0.5
185 1 0.554897 0.768156 0.5
304 1 0.612215 0.776831 0.5
300 1 0.66066 0.788059 0.5
165 1 0.514912 0.53227 0.5
184 1 0.519564 0.80512 0.5
303 1 0.577239 0.819629 0.5
296 1 0.711856 0.807069 0.5
190 1 0.530213 0.852581 0.5
309 1 0.596089 0.867259 0.5
305 1 0.627317 0.826012 0.5
312 1 0.676356 0.844475 0.5
311 1 0.643954 0.888867 0.5
301 1 0.735984 0.85646 0.5
315 1 0.551758 0.902068 0.5
310 1 0.601831 0.917688 0.5
318 1 0.697574 0.896131 0.5
201 1 0.51437 0.937589 0.5
202 1 0.569399 0.950682 0.5
316 1 0.62534 0.960372 0.5
317 1 0.672534 0.938252 0.5
204 1 0.722463 0.941932 0.5
377 1 0.746868 0.614768 0.5
209 1 0.585375 0.998656 0.5
280 1 0.50313 0.625724 0.5
180 1 0.503868 0.757227 0.5
302 1 0.742299 0.758194 0.5
268 1 0.603866 0.502271 0.5
211 1 0.799354 0.00356883 0.5
325 1 0.848845 0.00976339 0.5
321 1 0.897605 0.0217928 0.5
1 1 0.955727 0.0216267 0.5
218 1 0.757977 0.0524817 0.5
326 1 0.810275 0.0563374 0.5
330 1 0.862719 0.0614863 0.5
212 1 0.781027 0.0999278 0.5
323 1 0.915348 0.0775484 0.5
4 1 0.968088 0.074224 0.5
329 1 0.83092 0.108086 0.5
322 1 0.882478 0.118647 0.5
328 1 0.933997 0.124818 0.5
41 1 0.983476 0.463964 0.5
338 1 0.80073 0.152247 0.5
334 1 0.851718 0.159278 0.5
327 1 0.901045 0.16891 0.5
2 1 0.984841 0.132126 0.5
342 1 0.772586 0.194267 0.5
339 1 0.823137 0.201711 0.5
335 1 0.872116 0.209755 0.5
6 1 0.957296 0.178037 0.5
345 1 0.786846 0.244899 0.5
332 1 0.927064 0.220916 0.5
12 1 0.976665 0.231738 0.5
349 1 0.75772 0.296133 0.5
343 1 0.840272 0.251496 0.5
340 1 0.892635 0.260293 0.5
331 1 0.944404 0.275796 0.5
346 1 0.810561 0.30129 0.5
344 1 0.860616 0.302653 0.5
26 1 0.916644 0.318546 0.5
353 1 0.77925 0.343674 0.5
347 1 0.830538 0.3497 0.5
348 1 0.880844 0.354402 0.5
16 1 0.970557 0.331322 0.5
361 1 0.792073 0.482399 0.5
260 1 0.800555 0.391984 0.5
336 1 0.937125 0.369112 0.5
31 1 0.994192 0.379016 0.5
272 1 0.769106 0.433479 0.5
350 1 0.855056 0.396151 0.5
352 1 0.908071 0.411343 0.5
21 1 0.959409 0.419906 0.5
354 1 0.827246 0.441054 0.5
351 1 0.876089 0.453933 0.5
355 1 0.927679 0.460703 0.5
357 1 0.84313 0.495098 0.5
27 1 0.996152 0.285105 0.5
266 1 0.747184 0.383245 0.5
382 1 0.761879 0.664833 0.5
362 1 0.807474 0.532103 0.5
324 1 0.930647 0.975802 0.5
397 1 0.878716 0.970422 0.5
367 1 0.86319 0.542165 0.5
363 1 0.919246 0.555392 0.5
364 1 0.970641 0.557475 0.5
365 1 0.779437 0.57415 0.5
369 1 0.830167 0.583185 0.5
366 1 0.878906 0.592532 0.5
368 1 0.937228 0.603863 0.5
374 1 0.797623 0.625065 0.5
375 1 0.847241 0.634391 0.5
370 1 0.898422 0.642404 0.5
56 1 0.988328 0.605408 0.5
206 1 0.824959 0.959838 0.5
379 1 0.811381 0.670968 0.5
371 1 0.957827 0.648774 0.5
387 1 0.867064 0.682377 0.5
378 1 0.918764 0.689793 0.5
376 1 0.974596 0.698984 0.5
385 1 0.775738 0.716472 0.5
383 1 0.828674 0.720811 0.5
391 1 0.880912 0.730226 0.5
384 1 0.9406 0.733909 0.5
386 1 0.799226 0.764052 0.5
390 1 0.849682 0.774145 0.5
395 1 0.909282 0.775376 0.5
278 1 0.758081 0.520613 0.5
308 1 0.76651 0.810342 0.5
388 1 0.962919 0.781002 0.5
389 1 0.822218 0.820648 0.5
393 1 0.87645 0.815925 0.5
398 1 0.929454 0.825611 0.5
86 1 0.979537 0.843053 0.5
319 1 0.785744 0.859426 0.5
313 1 0.841484 0.86563 0.5
394 1 0.892965 0.8663 0.5
392 1 0.94759 0.882604 0.5
380 1 0.998552 0.743519 0.5
320 1 0.808635 0.912761 0.5
314 1 0.864593 0.917214 0.5
400 1 0.919573 0.926673 0.5
3 1 0.990763 0.982127 0.5
205 1 0.773696 0.953632 0.5
96 1 0.967482 0.933618 0.5
359 1 0.94516 0.509114 0.5
307 1 0.757717 0.900994 0.5
399 1 0.997998 0.892934 0.5
356 1 0.999441 0.5129 0.5
358 1 0.894783 0.500175 0.5
