ITEM: TIMESTEP
100000
ITEM: NUMBER OF ATOMS
400
ITEM: BOX BOUNDS pp pp pp
0.0000000000000000e+00 2.0000000000000000e+01
0.0000000000000000e+00 2.0000000000000000e+01
-5.0000000000000000e-01 5.0000000000000000e-01
ITEM: ATOMS id type xs ys zs
83 1 0.03634 0.000512398 0.5
73 1 0.190112 0.0137718 0.5
285 1 0.0266379 0.049618 0.5
236 1 0.0769785 0.0428284 0.5
338 1 0.126625 0.0354466 0.5
318 1 0.172976 0.058567 0.5
202 1 0.0687167 0.0940105 0.5
161 1 0.113129 0.0814212 0.5
25 1 0.203487 0.0989717 0.5
205 1 0.0286297 0.123637 0.5
380 1 0.103022 0.129601 0.5
104 1 0.15246 0.118937 0.5
293 1 0.0693437 0.161343 0.5
271 1 0.206069 0.151736 0.5
96 1 0.0188833 0.169135 0.5
49 1 0.109693 0.187018 0.5
150 1 0.155959 0.171538 0.5
191 1 0.198714 0.199245 0.5
139 1 0.248643 0.183202 0.5
100 1 0.0121013 0.220693 0.5
42 1 0.0613568 0.209381 0.5
168 1 0.149877 0.219661 0.5
157 1 0.0459359 0.258257 0.5
129 1 0.105135 0.235614 0.5
176 1 0.189288 0.25003 0.5
3 1 0.236289 0.238487 0.5
308 1 0.0964322 0.284371 0.5
382 1 0.141854 0.267443 0.5
352 1 0.227415 0.295616 0.5
59 1 0.0261596 0.306069 0.5
345 1 0.131531 0.318117 0.5
381 1 0.181752 0.310703 0.5
331 1 0.0259471 0.356921 0.5
363 1 0.0714943 0.335957 0.5
92 1 0.164247 0.359445 0.5
349 1 0.212609 0.346957 0.5
33 1 0.0650901 0.399644 0.5
152 1 0.108774 0.372112 0.5
58 1 0.198439 0.395297 0.5
337 1 0.0169955 0.405158 0.5
40 1 0.103875 0.430909 0.5
30 1 0.146617 0.40437 0.5
245 1 0.240537 0.424714 0.5
67 1 0.053698 0.446769 0.5
187 1 0.183616 0.445172 0.5
130 1 0.0386132 0.494116 0.5
77 1 0.0957764 0.486946 0.5
212 1 0.139444 0.466684 0.5
221 1 0.217194 0.481428 0.5
23 1 0.128597 0.526079 0.5
43 1 0.175077 0.504829 0.5
63 1 0.0291377 0.543007 0.5
169 1 0.0770383 0.534005 0.5
107 1 0.16822 0.553581 0.5
193 1 0.220097 0.538675 0.5
341 1 0.0137769 0.592724 0.5
368 1 0.061094 0.580548 0.5
94 1 0.110521 0.571381 0.5
136 1 0.205814 0.588097 0.5
126 1 0.0546123 0.627922 0.5
35 1 0.105874 0.620046 0.5
171 1 0.158223 0.600349 0.5
388 1 0.239807 0.627958 0.5
340 1 0.00755218 0.644062 0.5
200 1 0.0860096 0.666612 0.5
4 1 0.146095 0.651887 0.5
146 1 0.193596 0.637851 0.5
273 1 0.0406237 0.68565 0.5
190 1 0.173596 0.691635 0.5
291 1 0.223373 0.678932 0.5
112 1 0.00532993 0.724002 0.5
295 1 0.0748436 0.719213 0.5
90 1 0.128424 0.712625 0.5
232 1 0.211282 0.725521 0.5
118 1 0.041989 0.764587 0.5
284 1 0.110688 0.763038 0.5
233 1 0.156617 0.750402 0.5
79 1 0.237404 0.763183 0.5
21 1 0.192448 0.785789 0.5
351 1 0.0349531 0.827599 0.5
365 1 0.098842 0.809696 0.5
82 1 0.144443 0.800742 0.5
397 1 0.183314 0.832677 0.5
12 1 0.234652 0.812085 0.5
24 1 0.0766106 0.860928 0.5
240 1 0.12375 0.852199 0.5
256 1 0.219758 0.866358 0.5
61 1 0.0228129 0.881702 0.5
113 1 0.167546 0.876922 0.5
93 1 0.00803152 0.928907 0.5
189 1 0.0651222 0.909578 0.5
143 1 0.113403 0.900989 0.5
210 1 0.151322 0.931553 0.5
162 1 0.202831 0.914159 0.5
160 1 0.0495704 0.954897 0.5
280 1 0.100116 0.946457 0.5
121 1 0.185919 0.96568 0.5
377 1 0.235873 0.948659 0.5
7 1 0.0832691 0.994076 0.5
72 1 0.136592 0.984386 0.5
62 1 0.237256 0.999261 0.5
350 1 0.32866 0.0215416 0.5
267 1 0.422257 0.0302434 0.5
192 1 0.472196 0.0214522 0.5
270 1 0.270839 0.0384956 0.5
10 1 0.310517 0.0656949 0.5
258 1 0.371838 0.0492916 0.5
305 1 0.264363 0.0862738 0.5
321 1 0.360089 0.0972925 0.5
64 1 0.410815 0.0829691 0.5
296 1 0.462209 0.0718386 0.5
281 1 0.303993 0.115253 0.5
115 1 0.447263 0.123957 0.5
211 1 0.498515 0.113172 0.5
366 1 0.257142 0.133988 0.5
203 1 0.301312 0.164697 0.5
134 1 0.345773 0.144191 0.5
367 1 0.392847 0.135162 0.5
329 1 0.473759 0.16647 0.5
317 1 0.375972 0.18411 0.5
142 1 0.424783 0.1753 0.5
362 1 0.280417 0.216895 0.5
357 1 0.336074 0.215732 0.5
98 1 0.413189 0.222102 0.5
274 1 0.465663 0.218901 0.5
39 1 0.440264 0.263286 0.5
385 1 0.496664 0.255324 0.5
120 1 0.276515 0.268939 0.5
371 1 0.334474 0.269064 0.5
309 1 0.38632 0.266816 0.5
335 1 0.473696 0.298397 0.5
209 1 0.263881 0.328484 0.5
185 1 0.308736 0.306612 0.5
276 1 0.357198 0.311608 0.5
108 1 0.413853 0.307422 0.5
255 1 0.305189 0.356897 0.5
215 1 0.391736 0.350105 0.5
359 1 0.451867 0.353701 0.5
239 1 0.254389 0.378648 0.5
204 1 0.338987 0.389885 0.5
282 1 0.48466 0.395206 0.5
132 1 0.294759 0.406247 0.5
44 1 0.382822 0.414369 0.5
199 1 0.433453 0.405723 0.5
218 1 0.338465 0.442766 0.5
301 1 0.414763 0.451159 0.5
80 1 0.471805 0.448361 0.5
283 1 0.262718 0.468567 0.5
194 1 0.303675 0.49501 0.5
135 1 0.363472 0.485959 0.5
399 1 0.458948 0.495375 0.5
37 1 0.260308 0.515414 0.5
376 1 0.346882 0.531841 0.5
400 1 0.410703 0.500942 0.5
158 1 0.492539 0.530176 0.5
216 1 0.300562 0.545097 0.5
383 1 0.390676 0.556851 0.5
36 1 0.437836 0.543706 0.5
175 1 0.258726 0.575671 0.5
196 1 0.339549 0.583949 0.5
225 1 0.425011 0.595181 0.5
156 1 0.475387 0.582944 0.5
106 1 0.29196 0.619069 0.5
324 1 0.374054 0.621436 0.5
101 1 0.271311 0.662952 0.5
182 1 0.330544 0.651552 0.5
347 1 0.41699 0.642402 0.5
333 1 0.466687 0.642006 0.5
9 1 0.305401 0.69638 0.5
344 1 0.380963 0.676943 0.5
361 1 0.430999 0.698831 0.5
197 1 0.489563 0.687121 0.5
222 1 0.262132 0.715354 0.5
395 1 0.346383 0.717957 0.5
177 1 0.468147 0.732647 0.5
167 1 0.305731 0.745908 0.5
353 1 0.395022 0.751613 0.5
263 1 0.298283 0.798628 0.5
389 1 0.346949 0.774714 0.5
50 1 0.438062 0.786043 0.5
76 1 0.379645 0.818217 0.5
102 1 0.476661 0.817528 0.5
260 1 0.278186 0.852435 0.5
264 1 0.331901 0.834147 0.5
298 1 0.425325 0.840701 0.5
198 1 0.313614 0.885062 0.5
237 1 0.372696 0.868694 0.5
66 1 0.417736 0.89734 0.5
70 1 0.464516 0.881265 0.5
164 1 0.258405 0.902189 0.5
374 1 0.297212 0.929217 0.5
386 1 0.355258 0.916247 0.5
304 1 0.452466 0.928815 0.5
327 1 0.333731 0.963301 0.5
105 1 0.397179 0.941723 0.5
220 1 0.282254 0.986328 0.5
5 1 0.376925 0.994533 0.5
208 1 0.433453 0.98213 0.5
85 1 0.480905 0.970274 0.5
393 1 0.527788 0.0075834 0.5
27 1 0.580849 0.00457549 0.5
116 1 0.726333 0.0170807 0.5
46 1 0.508166 0.056533 0.5
22 1 0.567809 0.056296 0.5
6 1 0.627718 0.0484214 0.5
244 1 0.672192 0.0343311 0.5
348 1 0.602703 0.0957928 0.5
390 1 0.660255 0.0828452 0.5
128 1 0.703709 0.0679662 0.5
56 1 0.551989 0.101662 0.5
392 1 0.636624 0.129016 0.5
29 1 0.731753 0.118754 0.5
394 1 0.538226 0.153164 0.5
306 1 0.587012 0.148262 0.5
224 1 0.690485 0.140769 0.5
20 1 0.612567 0.185269 0.5
213 1 0.663539 0.184161 0.5
131 1 0.733979 0.168212 0.5
319 1 0.513474 0.201834 0.5
268 1 0.565705 0.204809 0.5
165 1 0.651234 0.22965 0.5
323 1 0.707997 0.210345 0.5
241 1 0.544406 0.249988 0.5
163 1 0.596902 0.245383 0.5
97 1 0.683832 0.265944 0.5
60 1 0.742763 0.252829 0.5
117 1 0.526261 0.296169 0.5
278 1 0.578721 0.289624 0.5
279 1 0.633919 0.28359 0.5
302 1 0.602291 0.332502 0.5
242 1 0.665158 0.324417 0.5
234 1 0.713322 0.304291 0.5
81 1 0.500821 0.340471 0.5
141 1 0.550113 0.339341 0.5
19 1 0.69421 0.362016 0.5
332 1 0.743753 0.344163 0.5
342 1 0.537608 0.386067 0.5
226 1 0.592166 0.3795 0.5
246 1 0.641595 0.368617 0.5
89 1 0.517124 0.430742 0.5
88 1 0.56585 0.425114 0.5
287 1 0.618752 0.418939 0.5
184 1 0.671874 0.408827 0.5
38 1 0.728231 0.400403 0.5
253 1 0.602819 0.465886 0.5
57 1 0.650994 0.458702 0.5
372 1 0.703235 0.445479 0.5
238 1 0.507257 0.482232 0.5
370 1 0.556198 0.476764 0.5
153 1 0.688657 0.492304 0.5
188 1 0.737118 0.493896 0.5
228 1 0.540407 0.524992 0.5
74 1 0.59065 0.513446 0.5
303 1 0.640989 0.506486 0.5
375 1 0.681584 0.549288 0.5
32 1 0.732809 0.547295 0.5
111 1 0.522281 0.577049 0.5
288 1 0.578573 0.567824 0.5
314 1 0.632842 0.56822 0.5
2 1 0.709707 0.592471 0.5
294 1 0.511443 0.63036 0.5
336 1 0.560879 0.615416 0.5
286 1 0.615375 0.615215 0.5
114 1 0.666509 0.60728 0.5
289 1 0.592954 0.659922 0.5
1 1 0.699433 0.643428 0.5
54 1 0.54537 0.6737 0.5
174 1 0.644868 0.670465 0.5
230 1 0.687515 0.694413 0.5
16 1 0.734808 0.684976 0.5
248 1 0.522039 0.723526 0.5
186 1 0.585071 0.716613 0.5
251 1 0.64135 0.718895 0.5
71 1 0.718385 0.731013 0.5
180 1 0.556981 0.760511 0.5
322 1 0.612075 0.764038 0.5
140 1 0.675744 0.753844 0.5
110 1 0.505375 0.76946 0.5
166 1 0.711199 0.792154 0.5
355 1 0.529622 0.818278 0.5
217 1 0.578192 0.818848 0.5
343 1 0.642516 0.802327 0.5
261 1 0.738388 0.832735 0.5
384 1 0.517594 0.866214 0.5
103 1 0.574805 0.865272 0.5
307 1 0.625405 0.851587 0.5
8 1 0.680146 0.84194 0.5
179 1 0.663047 0.890377 0.5
17 1 0.720727 0.878271 0.5
69 1 0.50609 0.915393 0.5
223 1 0.557204 0.910679 0.5
398 1 0.614039 0.911095 0.5
259 1 0.695162 0.929577 0.5
84 1 0.531583 0.957345 0.5
269 1 0.586322 0.954653 0.5
334 1 0.649027 0.945035 0.5
138 1 0.743697 0.961745 0.5
95 1 0.63528 0.989307 0.5
55 1 0.692998 0.981486 0.5
48 1 0.774532 0.0099408 0.5
75 1 0.80448 0.0600743 0.5
26 1 0.854335 0.0349854 0.5
149 1 0.921899 0.0402388 0.5
53 1 0.974464 0.0366609 0.5
201 1 0.754632 0.0672359 0.5
183 1 0.845953 0.0860819 0.5
387 1 0.892565 0.0812691 0.5
313 1 0.947689 0.0804203 0.5
312 1 0.995209 0.0879457 0.5
181 1 0.787658 0.107427 0.5
109 1 0.876842 0.126834 0.5
231 1 0.925462 0.123803 0.5
266 1 0.782062 0.161353 0.5
13 1 0.828975 0.13923 0.5
65 1 0.976295 0.133693 0.5
195 1 0.82237 0.187267 0.5
86 1 0.869736 0.177685 0.5
99 1 0.920714 0.172693 0.5
219 1 0.972861 0.191836 0.5
148 1 0.765329 0.209742 0.5
358 1 0.895643 0.223061 0.5
396 1 0.948351 0.231498 0.5
34 1 0.800683 0.244528 0.5
154 1 0.849077 0.237982 0.5
133 1 0.768699 0.297347 0.5
379 1 0.823209 0.291991 0.5
206 1 0.888139 0.278205 0.5
91 1 0.938846 0.278395 0.5
147 1 0.994246 0.267569 0.5
173 1 0.862871 0.318916 0.5
227 1 0.917497 0.322892 0.5
330 1 0.977117 0.312732 0.5
252 1 0.791984 0.342266 0.5
369 1 0.883441 0.363782 0.5
316 1 0.778355 0.392012 0.5
78 1 0.833159 0.381226 0.5
122 1 0.922768 0.388246 0.5
243 1 0.977289 0.367368 0.5
145 1 0.813473 0.430009 0.5
31 1 0.872693 0.420755 0.5
257 1 0.966383 0.417268 0.5
45 1 0.751537 0.4427 0.5
326 1 0.917178 0.435079 0.5
52 1 0.954379 0.466613 0.5
290 1 0.999774 0.454363 0.5
299 1 0.802794 0.480344 0.5
292 1 0.85496 0.466991 0.5
356 1 0.900977 0.481875 0.5
300 1 0.777268 0.525878 0.5
15 1 0.84531 0.524276 0.5
178 1 0.895333 0.529431 0.5
275 1 0.94061 0.513988 0.5
51 1 0.989368 0.50063 0.5
320 1 0.813455 0.564907 0.5
125 1 0.978296 0.556586 0.5
262 1 0.760281 0.587593 0.5
155 1 0.869221 0.570611 0.5
325 1 0.931866 0.56894 0.5
311 1 0.804587 0.617549 0.5
124 1 0.850652 0.617535 0.5
14 1 0.90586 0.610898 0.5
159 1 0.962421 0.610258 0.5
310 1 0.752613 0.633807 0.5
119 1 0.881335 0.655776 0.5
235 1 0.934851 0.648067 0.5
373 1 0.786343 0.66944 0.5
254 1 0.834483 0.672119 0.5
272 1 0.922493 0.697181 0.5
214 1 0.971205 0.686121 0.5
41 1 0.772395 0.718921 0.5
378 1 0.8204 0.72135 0.5
354 1 0.873755 0.703274 0.5
265 1 0.753682 0.764382 0.5
11 1 0.852883 0.756233 0.5
360 1 0.90411 0.751703 0.5
170 1 0.962096 0.746063 0.5
339 1 0.806147 0.774198 0.5
391 1 0.946737 0.794411 0.5
123 1 0.998719 0.787431 0.5
328 1 0.788097 0.820225 0.5
315 1 0.846142 0.807933 0.5
28 1 0.897853 0.804033 0.5
144 1 0.820655 0.859643 0.5
297 1 0.875842 0.849521 0.5
68 1 0.926805 0.843695 0.5
249 1 0.985248 0.836055 0.5
250 1 0.773654 0.868854 0.5
137 1 0.906218 0.891179 0.5
18 1 0.965392 0.879717 0.5
207 1 0.753991 0.913859 0.5
172 1 0.811363 0.906739 0.5
277 1 0.858898 0.905806 0.5
247 1 0.793496 0.950423 0.5
346 1 0.846133 0.955726 0.5
127 1 0.904958 0.947641 0.5
151 1 0.953417 0.944382 0.5
229 1 0.821034 0.996008 0.5
47 1 0.882161 0.989686 0.5
364 1 0.934982 0.987779 0.5
87 1 0.990706 0.989405 0.5
