ITEM: TIMESTEP
100000
ITEM: NUMBER OF ATOMS
400
ITEM: BOX BOUNDS pp pp pp
0.0000000000000000e+00 2.1081851067789195e+01
0.0000000000000000e+00 2.1081851067789195e+01
-5.2704627669472992e-01 5.2704627669472992e-01
ITEM: ATOMS id type xs ys zs
123 1 0.0240459 0.00108544 0.5
74 1 0.113429 0.0179386 0.5
347 1 0.159411 0.0177748 0.5
25 1 0.225407 0.025944 0.5
171 1 0.0359947 0.0496859 0.5
60 1 0.0857889 0.0618839 0.5
4 1 0.139765 0.0588592 0.5
357 1 0.0265974 0.093436 0.5
130 1 0.1927 0.0642747 0.5
18 1 0.0730049 0.107814 0.5
258 1 0.117265 0.101647 0.5
66 1 0.186685 0.111687 0.5
235 1 0.235383 0.106541 0.5
233 1 0.0285997 0.136363 0.5
197 1 0.10147 0.143014 0.5
274 1 0.14581 0.149411 0.5
392 1 0.227011 0.151598 0.5
67 1 0.0378347 0.179987 0.5
117 1 0.187891 0.177029 0.5
198 1 0.0812128 0.204663 0.5
151 1 0.125318 0.191584 0.5
231 1 0.23681 0.203163 0.5
68 1 0.0675471 0.249681 0.5
355 1 0.119256 0.244356 0.5
326 1 0.160952 0.225366 0.5
109 1 0.240962 0.248413 0.5
13 1 0.0169906 0.266464 0.5
64 1 0.190728 0.262296 0.5
85 1 0.0194264 0.311249 0.5
340 1 0.0605989 0.293729 0.5
196 1 0.106585 0.286553 0.5
288 1 0.15532 0.291414 0.5
388 1 0.209223 0.304845 0.5
304 1 0.239299 0.342182 0.5
50 1 0.0174166 0.363569 0.5
277 1 0.057995 0.347546 0.5
361 1 0.103244 0.368571 0.5
128 1 0.145888 0.352039 0.5
217 1 0.194464 0.348752 0.5
125 1 0.0600645 0.393787 0.5
30 1 0.162938 0.397894 0.5
127 1 0.20909 0.393009 0.5
365 1 0.0189764 0.421832 0.5
207 1 0.105591 0.414018 0.5
47 1 0.0254477 0.467723 0.5
228 1 0.0705216 0.443688 0.5
300 1 0.116225 0.463116 0.5
152 1 0.197315 0.445075 0.5
219 1 0.242441 0.444058 0.5
362 1 0.0769892 0.493055 0.5
334 1 0.161689 0.476192 0.5
367 1 0.204265 0.495319 0.5
84 1 0.0270478 0.51623 0.5
290 1 0.127704 0.511073 0.5
250 1 0.170184 0.537788 0.5
266 1 0.221225 0.538145 0.5
360 1 0.0381838 0.568016 0.5
390 1 0.0857841 0.577378 0.5
39 1 0.130715 0.5643 0.5
310 1 0.179447 0.588 0.5
97 1 0.241525 0.581819 0.5
75 1 0.00343493 0.606561 0.5
359 1 0.0514353 0.616182 0.5
150 1 0.148324 0.617885 0.5
175 1 0.101116 0.625313 0.5
106 1 0.206794 0.649767 0.5
222 1 0.00999734 0.6699 0.5
237 1 0.0670586 0.659938 0.5
281 1 0.112193 0.670298 0.5
143 1 0.166019 0.680309 0.5
119 1 0.0466204 0.69998 0.5
92 1 0.130657 0.711908 0.5
52 1 0.209765 0.702635 0.5
94 1 0.0420295 0.746972 0.5
185 1 0.0841206 0.721353 0.5
122 1 0.176485 0.734713 0.5
36 1 0.24922 0.733683 0.5
167 1 0.0803976 0.774734 0.5
271 1 0.136069 0.762329 0.5
209 1 0.20498 0.778976 0.5
46 1 0.0346934 0.807311 0.5
247 1 0.160192 0.80127 0.5
17 1 0.244167 0.80416 0.5
156 1 0.0735912 0.843355 0.5
262 1 0.112946 0.818815 0.5
164 1 0.199948 0.829261 0.5
329 1 0.0193607 0.867154 0.5
225 1 0.153541 0.846804 0.5
325 1 0.194868 0.874941 0.5
289 1 0.244681 0.848942 0.5
296 1 0.0584281 0.901492 0.5
29 1 0.0986361 0.883861 0.5
375 1 0.143487 0.89214 0.5
93 1 0.0143464 0.928281 0.5
88 1 0.107562 0.935417 0.5
179 1 0.167034 0.937108 0.5
223 1 0.21113 0.920788 0.5
383 1 0.0619326 0.945439 0.5
104 1 0.243248 0.954222 0.5
399 1 0.0719429 0.993546 0.5
162 1 0.135118 0.974283 0.5
253 1 0.190962 0.982431 0.5
297 1 0.304966 0.0177868 0.5
37 1 0.348183 0.0050984 0.5
356 1 0.480379 0.0188753 0.5
315 1 0.268846 0.0464414 0.5
146 1 0.345522 0.0567977 0.5
157 1 0.394502 0.0356145 0.5
389 1 0.442052 0.0429573 0.5
241 1 0.30047 0.0845463 0.5
10 1 0.387209 0.082129 0.5
248 1 0.434963 0.0883879 0.5
205 1 0.484786 0.0721405 0.5
382 1 0.360451 0.120063 0.5
312 1 0.272213 0.143175 0.5
83 1 0.318243 0.136253 0.5
395 1 0.407192 0.126585 0.5
72 1 0.464863 0.131042 0.5
279 1 0.284259 0.187314 0.5
299 1 0.379013 0.165159 0.5
78 1 0.424329 0.16965 0.5
98 1 0.332142 0.191045 0.5
140 1 0.395808 0.207119 0.5
126 1 0.447241 0.216772 0.5
293 1 0.498608 0.19298 0.5
230 1 0.287669 0.238883 0.5
370 1 0.344713 0.242363 0.5
168 1 0.402048 0.273561 0.5
335 1 0.45197 0.266138 0.5
110 1 0.268236 0.28529 0.5
136 1 0.310733 0.299427 0.5
338 1 0.354528 0.287353 0.5
366 1 0.426025 0.310549 0.5
56 1 0.470666 0.324704 0.5
32 1 0.286058 0.363781 0.5
308 1 0.343664 0.346321 0.5
194 1 0.392072 0.357208 0.5
134 1 0.456543 0.372827 0.5
394 1 0.262898 0.403112 0.5
26 1 0.358258 0.389874 0.5
190 1 0.309963 0.406459 0.5
139 1 0.412825 0.418674 0.5
220 1 0.46229 0.422259 0.5
169 1 0.289275 0.450933 0.5
65 1 0.337018 0.443276 0.5
100 1 0.495348 0.459723 0.5
62 1 0.262599 0.492839 0.5
184 1 0.314878 0.490222 0.5
268 1 0.393077 0.487615 0.5
113 1 0.440792 0.47721 0.5
368 1 0.352759 0.517211 0.5
34 1 0.422193 0.526782 0.5
153 1 0.470829 0.513923 0.5
22 1 0.270689 0.53865 0.5
345 1 0.337288 0.562063 0.5
155 1 0.387117 0.553198 0.5
324 1 0.292248 0.587685 0.5
21 1 0.432162 0.585087 0.5
275 1 0.474539 0.563658 0.5
332 1 0.347051 0.614117 0.5
48 1 0.40416 0.623831 0.5
116 1 0.464613 0.620332 0.5
2 1 0.265699 0.626754 0.5
133 1 0.31919 0.652708 0.5
87 1 0.366541 0.654801 0.5
348 1 0.263225 0.682846 0.5
177 1 0.42097 0.669637 0.5
41 1 0.49202 0.656383 0.5
351 1 0.300231 0.714576 0.5
159 1 0.37976 0.698221 0.5
108 1 0.462837 0.691406 0.5
131 1 0.380304 0.742842 0.5
193 1 0.425449 0.725109 0.5
166 1 0.468295 0.746649 0.5
203 1 0.283956 0.772701 0.5
238 1 0.338404 0.765558 0.5
234 1 0.427929 0.777035 0.5
352 1 0.384016 0.799596 0.5
141 1 0.479282 0.791662 0.5
9 1 0.287636 0.8272 0.5
331 1 0.332898 0.812526 0.5
188 1 0.439512 0.823795 0.5
27 1 0.290739 0.872728 0.5
89 1 0.347438 0.853679 0.5
200 1 0.392153 0.850401 0.5
385 1 0.470339 0.864266 0.5
240 1 0.250031 0.898351 0.5
120 1 0.335219 0.905945 0.5
254 1 0.432169 0.883985 0.5
158 1 0.291003 0.926159 0.5
95 1 0.390973 0.906459 0.5
204 1 0.359895 0.9538 0.5
350 1 0.413299 0.946178 0.5
142 1 0.469414 0.949945 0.5
51 1 0.262027 0.997479 0.5
7 1 0.299653 0.969387 0.5
227 1 0.394883 0.990326 0.5
55 1 0.440993 0.992206 0.5
398 1 0.566837 0.0219429 0.5
181 1 0.653387 0.0173492 0.5
115 1 0.73205 0.0277844 0.5
114 1 0.522862 0.0390686 0.5
391 1 0.614156 0.0469511 0.5
20 1 0.689158 0.0450075 0.5
216 1 0.524421 0.0903493 0.5
137 1 0.570392 0.0705085 0.5
264 1 0.650346 0.0758511 0.5
71 1 0.739273 0.0705102 0.5
292 1 0.557264 0.120718 0.5
263 1 0.6095 0.0944916 0.5
261 1 0.702008 0.0943807 0.5
255 1 0.748649 0.118458 0.5
319 1 0.513672 0.143118 0.5
210 1 0.652506 0.125917 0.5
80 1 0.719047 0.1533 0.5
5 1 0.566161 0.169219 0.5
284 1 0.618304 0.156607 0.5
278 1 0.674905 0.16617 0.5
90 1 0.591372 0.212046 0.5
283 1 0.643989 0.203257 0.5
79 1 0.722548 0.214952 0.5
305 1 0.541341 0.224398 0.5
145 1 0.680843 0.237496 0.5
11 1 0.502882 0.251384 0.5
218 1 0.564829 0.2715 0.5
182 1 0.623019 0.251604 0.5
294 1 0.713896 0.26776 0.5
386 1 0.525136 0.292364 0.5
111 1 0.65379 0.287331 0.5
212 1 0.739235 0.30543 0.5
380 1 0.564958 0.320046 0.5
70 1 0.613151 0.315819 0.5
303 1 0.691322 0.326265 0.5
346 1 0.524389 0.346858 0.5
285 1 0.570188 0.371176 0.5
318 1 0.644114 0.350613 0.5
316 1 0.71978 0.361099 0.5
45 1 0.524797 0.396584 0.5
187 1 0.618487 0.389354 0.5
242 1 0.562683 0.417502 0.5
251 1 0.67986 0.410106 0.5
298 1 0.541053 0.456884 0.5
349 1 0.590361 0.455122 0.5
226 1 0.639074 0.445498 0.5
311 1 0.713955 0.439267 0.5
170 1 0.671878 0.483256 0.5
99 1 0.523077 0.500813 0.5
291 1 0.575273 0.524393 0.5
313 1 0.620461 0.510448 0.5
58 1 0.671989 0.528293 0.5
12 1 0.722345 0.501551 0.5
214 1 0.515943 0.547184 0.5
259 1 0.618632 0.558874 0.5
269 1 0.725244 0.562167 0.5
323 1 0.561198 0.565077 0.5
282 1 0.677318 0.592798 0.5
252 1 0.528146 0.613038 0.5
232 1 0.57494 0.613486 0.5
91 1 0.628162 0.60148 0.5
379 1 0.740612 0.61026 0.5
44 1 0.547191 0.655005 0.5
301 1 0.611809 0.644865 0.5
307 1 0.662628 0.641119 0.5
3 1 0.656434 0.685751 0.5
339 1 0.707386 0.672923 0.5
343 1 0.512283 0.695633 0.5
265 1 0.560354 0.717712 0.5
38 1 0.604129 0.707659 0.5
327 1 0.639449 0.739051 0.5
314 1 0.698885 0.72517 0.5
173 1 0.520225 0.752529 0.5
246 1 0.565919 0.766892 0.5
369 1 0.609744 0.775182 0.5
112 1 0.677342 0.772127 0.5
144 1 0.748826 0.757552 0.5
358 1 0.649997 0.810633 0.5
107 1 0.747027 0.811183 0.5
19 1 0.55848 0.820867 0.5
239 1 0.605958 0.836835 0.5
31 1 0.698554 0.818367 0.5
353 1 0.515649 0.854931 0.5
28 1 0.559863 0.865246 0.5
202 1 0.649253 0.857019 0.5
154 1 0.743113 0.855492 0.5
321 1 0.500327 0.904211 0.5
1 1 0.608333 0.886636 0.5
138 1 0.698088 0.880153 0.5
354 1 0.738741 0.905872 0.5
8 1 0.548608 0.926241 0.5
57 1 0.656161 0.906572 0.5
374 1 0.700644 0.934401 0.5
376 1 0.605482 0.94151 0.5
320 1 0.663489 0.961432 0.5
396 1 0.742302 0.953714 0.5
215 1 0.528408 0.973159 0.5
49 1 0.573516 0.973582 0.5
341 1 0.61735 0.984141 0.5
322 1 0.708094 0.984706 0.5
191 1 0.838785 0.024437 0.5
174 1 0.936553 0.00802395 0.5
118 1 0.982124 0.0230711 0.5
270 1 0.779008 0.0361466 0.5
77 1 0.884883 0.0395657 0.5
249 1 0.934534 0.0510671 0.5
393 1 0.827352 0.0682454 0.5
16 1 0.883003 0.0914869 0.5
206 1 0.977101 0.0704463 0.5
245 1 0.788948 0.0940973 0.5
260 1 0.840139 0.112601 0.5
14 1 0.932725 0.0970811 0.5
178 1 0.983291 0.115825 0.5
96 1 0.803046 0.147149 0.5
148 1 0.890377 0.137718 0.5
23 1 0.936425 0.155683 0.5
276 1 0.763221 0.178915 0.5
69 1 0.84586 0.173196 0.5
387 1 0.899107 0.181408 0.5
86 1 0.993489 0.18025 0.5
295 1 0.804497 0.197865 0.5
221 1 0.943624 0.202358 0.5
121 1 0.765791 0.233973 0.5
147 1 0.841243 0.224985 0.5
287 1 0.894379 0.231155 0.5
256 1 0.98593 0.233146 0.5
163 1 0.788596 0.275799 0.5
328 1 0.937877 0.255422 0.5
371 1 0.838305 0.284864 0.5
306 1 0.890543 0.296023 0.5
302 1 0.97397 0.286091 0.5
213 1 0.801592 0.321607 0.5
183 1 0.854757 0.329568 0.5
373 1 0.939 0.317341 0.5
53 1 0.978163 0.338106 0.5
330 1 0.76122 0.346874 0.5
172 1 0.809458 0.371575 0.5
317 1 0.90729 0.362488 0.5
63 1 0.763717 0.398195 0.5
149 1 0.863675 0.377217 0.5
35 1 0.972271 0.382321 0.5
165 1 0.820815 0.416859 0.5
81 1 0.88513 0.425852 0.5
211 1 0.929951 0.411533 0.5
82 1 0.753136 0.467703 0.5
333 1 0.795617 0.452042 0.5
189 1 0.932833 0.466857 0.5
161 1 0.975002 0.442293 0.5
377 1 0.801593 0.499045 0.5
400 1 0.839618 0.469824 0.5
129 1 0.887277 0.472487 0.5
384 1 0.979676 0.490029 0.5
378 1 0.762372 0.529861 0.5
40 1 0.859838 0.513532 0.5
286 1 0.910598 0.512685 0.5
124 1 0.956066 0.527477 0.5
364 1 0.826088 0.544491 0.5
372 1 0.919117 0.556471 0.5
244 1 0.994495 0.554564 0.5
105 1 0.772902 0.573951 0.5
199 1 0.825668 0.590829 0.5
43 1 0.873004 0.576576 0.5
236 1 0.957162 0.589186 0.5
61 1 0.784622 0.618031 0.5
76 1 0.91126 0.610305 0.5
224 1 0.821932 0.64686 0.5
180 1 0.868345 0.626311 0.5
267 1 0.938152 0.645946 0.5
257 1 0.751431 0.660267 0.5
342 1 0.793136 0.682382 0.5
160 1 0.88064 0.687106 0.5
103 1 0.75057 0.712496 0.5
73 1 0.91613 0.713425 0.5
15 1 0.961634 0.703154 0.5
186 1 0.792226 0.738182 0.5
337 1 0.859675 0.728516 0.5
42 1 0.953572 0.749965 0.5
33 1 0.996965 0.735272 0.5
176 1 0.848924 0.7759 0.5
243 1 0.894409 0.760761 0.5
280 1 0.789478 0.789407 0.5
101 1 0.942451 0.797717 0.5
272 1 0.987205 0.784603 0.5
135 1 0.786165 0.835903 0.5
195 1 0.839232 0.819876 0.5
309 1 0.896596 0.816022 0.5
192 1 0.988169 0.832748 0.5
208 1 0.82871 0.863894 0.5
102 1 0.879574 0.859545 0.5
229 1 0.93773 0.84957 0.5
381 1 0.782167 0.884852 0.5
132 1 0.858296 0.903584 0.5
54 1 0.912161 0.893816 0.5
336 1 0.975865 0.883105 0.5
344 1 0.965869 0.932288 0.5
59 1 0.798356 0.944833 0.5
273 1 0.882732 0.942909 0.5
363 1 0.928217 0.962103 0.5
24 1 0.803244 0.992179 0.5
201 1 0.847433 0.973707 0.5
397 1 0.889224 0.992898 0.5
6 1 0.982822 0.976666 0.5
