ITEM: TIMESTEP
100000
ITEM: NUMBER OF ATOMS
400
ITEM: BOX BOUNDS pp pp pp
0.0000000000000000e+00 2.5819888974716111e+01
0.0000000000000000e+00 2.5819888974716111e+01
-6.4549722436790280e-01 6.4549722436790280e-01
ITEM: ATOMS id type xs ys zs
241 1 0.198609 0.014874 0.5
76 1 0.0622863 0.132723 0.5
372 1 0.063532 0.30824 0.5
101 1 0.160945 0.0398405 0.5
106 1 0.239864 0.320025 0.5
368 1 0.235117 0.280126 0.5
47 1 0.177448 0.379756 0.5
174 1 0.0984339 0.455502 0.5
66 1 0.148464 0.127693 0.5
39 1 0.127316 0.420496 0.5
154 1 0.172689 0.0884759 0.5
337 1 0.190262 0.414841 0.5
147 1 0.123679 0.0963519 0.5
16 1 0.223919 0.107145 0.5
395 1 0.172091 0.284892 0.5
359 1 0.0154262 0.00206489 0.5
347 1 0.0730069 0.0535526 0.5
247 1 0.139264 0.324144 0.5
42 1 0.161383 0.223936 0.5
267 1 0.201795 0.0591667 0.5
257 1 0.0998666 0.132086 0.5
334 1 0.0402647 0.34409 0.5
102 1 0.126798 0.207277 0.5
158 1 0.101385 0.394504 0.5
260 1 0.0813455 0.169956 0.5
82 1 0.0296927 0.14525 0.5
220 1 0.0663565 0.0119939 0.5
389 1 0.162003 0.452345 0.5
124 1 0.21754 0.159636 0.5
356 1 0.0645467 0.21018 0.5
250 1 0.136346 0.26031 0.5
335 1 0.0519404 0.249852 0.5
394 1 0.0294499 0.05191 0.5
204 1 0.192605 0.245862 0.5
328 1 0.212498 0.44973 0.5
304 1 0.0486421 0.492492 0.5
352 1 0.13729 0.369386 0.5
103 1 0.173533 0.153314 0.5
40 1 0.0733544 0.422196 0.5
23 1 0.180062 0.331093 0.5
371 1 0.198243 0.203333 0.5
195 1 0.0433304 0.0993743 0.5
84 1 0.237383 0.363406 0.5
345 1 0.0981064 0.282603 0.5
54 1 0.0127074 0.313555 0.5
145 1 0.226655 0.404921 0.5
284 1 0.118144 0.0520288 0.5
114 1 0.0523117 0.384481 0.5
21 1 0.00987842 0.467412 0.5
235 1 0.0201171 0.196022 0.5
179 1 0.158053 0.489883 0.5
72 1 0.0940097 0.49586 0.5
184 1 0.240388 0.0470864 0.5
207 1 0.243372 0.00256921 0.5
144 1 0.239351 0.599959 0.5
190 1 0.0510548 0.641664 0.5
25 1 0.0707796 0.960539 0.5
137 1 0.0413149 0.575565 0.5
285 1 0.21889 0.740968 0.5
364 1 0.0434759 0.884825 0.5
253 1 0.0474445 0.531486 0.5
10 1 0.191998 0.706004 0.5
246 1 0.159786 0.896677 0.5
276 1 0.223604 0.789759 0.5
391 1 0.0871767 0.684731 0.5
273 1 0.236744 0.642987 0.5
315 1 0.191071 0.662608 0.5
332 1 0.131503 0.543459 0.5
20 1 0.163542 0.575532 0.5
123 1 0.212054 0.979078 0.5
274 1 -0.000508765 0.546864 0.5
43 1 0.152676 0.812463 0.5
157 1 0.0310899 0.748108 0.5
201 1 0.128168 0.778896 0.5
126 1 0.178666 0.939492 0.5
358 1 0.199245 0.618496 0.5
341 1 0.013252 0.78203 0.5
81 1 0.211643 0.563802 0.5
17 1 0.241119 0.686747 0.5
128 1 0.0986913 0.637978 0.5
218 1 0.123208 0.716508 0.5
314 1 0.147963 0.641153 0.5
175 1 0.109035 0.58209 0.5
269 1 0.211225 0.841468 0.5
232 1 0.0731502 0.799719 0.5
180 1 0.0534508 0.83497 0.5
307 1 0.0433299 0.688084 0.5
3 1 0.0832073 0.727783 0.5
293 1 0.0834267 0.870183 0.5
259 1 0.113847 0.904345 0.5
24 1 0.224144 0.942768 0.5
263 1 0.139994 0.935146 0.5
8 1 0.142563 0.679729 0.5
303 1 0.171325 0.9901 0.5
366 1 0.109121 0.987113 0.5
363 1 0.099521 0.940392 0.5
93 1 0.208672 0.900987 0.5
379 1 0.101425 0.83373 0.5
191 1 0.0781298 0.560121 0.5
240 1 0.13366 0.870065 0.5
112 1 0.022137 0.959272 0.5
182 1 0.201684 0.509868 0.5
86 1 0.244598 0.863836 0.5
378 1 0.347703 0.209582 0.5
74 1 0.417923 0.258431 0.5
397 1 0.457033 0.0590262 0.5
57 1 0.28043 0.00539391 0.5
7 1 0.461432 0.154326 0.5
300 1 0.431507 0.321059 0.5
296 1 0.332155 0.166467 0.5
187 1 0.364562 0.137468 0.5
280 1 0.415256 0.379484 0.5
289 1 0.402019 0.462183 0.5
122 1 0.407718 0.0450678 0.5
97 1 0.417559 0.164004 0.5
58 1 0.450589 0.278479 0.5
374 1 0.362885 0.0397463 0.5
265 1 0.493312 0.189243 0.5
282 1 0.276357 0.36912 0.5
309 1 0.449231 0.409734 0.5
181 1 0.476913 0.247322 0.5
31 1 0.391668 0.0874252 0.5
339 1 0.494071 0.407266 0.5
383 1 0.459451 0.366438 0.5
67 1 0.393017 0.317882 0.5
322 1 0.340864 0.102929 0.5
38 1 0.38721 0.407044 0.5
78 1 0.303917 0.189961 0.5
27 1 0.360683 0.43319 0.5
242 1 0.419248 0.114249 0.5
91 1 0.269662 0.24014 0.5
94 1 0.480523 0.32449 0.5
18 1 0.253277 0.187335 0.5
324 1 0.345224 0.27973 0.5
155 1 0.4786 0.44568 0.5
30 1 0.356255 0.480655 0.5
88 1 0.410179 0.209475 0.5
252 1 0.367533 0.356233 0.5
193 1 0.279592 0.329779 0.5
51 1 0.320221 0.0611175 0.5
213 1 0.322252 0.435693 0.5
346 1 0.274209 0.471397 0.5
79 1 0.41995 0.00529385 0.5
291 1 0.294709 0.0949532 0.5
166 1 0.335279 0.382374 0.5
2 1 0.298511 0.279069 0.5
216 1 0.376822 0.178229 0.5
41 1 0.383265 0.271051 0.5
49 1 0.46268 0.103312 0.5
19 1 0.252344 0.132951 0.5
85 1 0.370528 0.716585 0.5
399 1 0.456289 0.919234 0.5
340 1 0.269766 0.909325 0.5
170 1 0.32074 0.720991 0.5
96 1 0.289898 0.851325 0.5
35 1 0.431812 0.778036 0.5
323 1 0.295572 0.669822 0.5
185 1 0.472638 0.779952 0.5
119 1 0.285431 0.634057 0.5
196 1 0.358932 0.795852 0.5
186 1 0.352518 0.998282 0.5
29 1 0.366529 0.842275 0.5
116 1 0.424646 0.538193 0.5
234 1 0.35051 0.750711 0.5
105 1 0.339901 0.619374 0.5
248 1 0.414489 0.813312 0.5
390 1 0.478883 0.889522 0.5
95 1 0.425221 0.857323 0.5
357 1 0.3502 0.565743 0.5
288 1 0.43102 0.67183 0.5
343 1 0.387665 0.557918 0.5
68 1 0.388161 0.597322 0.5
6 1 0.422431 0.631638 0.5
387 1 0.325701 0.538208 0.5
143 1 0.390806 0.67953 0.5
75 1 0.416812 0.942314 0.5
217 1 0.428254 0.718639 0.5
209 1 0.351393 0.87696 0.5
188 1 0.319932 0.90456 0.5
351 1 0.294988 0.815002 0.5
384 1 0.49414 0.942423 0.5
83 1 0.471734 0.984075 0.5
53 1 0.329725 0.94669 0.5
381 1 0.371785 0.917012 0.5
73 1 0.463404 0.824675 0.5
348 1 0.336957 0.681763 0.5
398 1 0.271551 0.948995 0.5
65 1 0.468174 0.690135 0.5
338 1 0.416735 0.903097 0.5
318 1 0.389411 0.968573 0.5
244 1 0.280352 0.708041 0.5
283 1 0.361894 0.52161 0.5
15 1 0.299059 0.754967 0.5
142 1 0.460835 0.631691 0.5
321 1 0.461667 0.560028 0.5
325 1 0.295988 0.568195 0.5
108 1 0.259223 0.776992 0.5
342 1 0.271221 0.535446 0.5
233 1 0.488933 0.7326 0.5
136 1 0.299649 0.5033 0.5
279 1 0.4797 0.502554 0.5
305 1 0.545804 0.366826 0.5
89 1 0.707251 0.101169 0.5
117 1 0.703099 0.466112 0.5
167 1 0.703344 0.329214 0.5
361 1 0.726848 0.227844 0.5
161 1 0.569961 0.0600638 0.5
176 1 0.676409 0.430914 0.5
294 1 0.59031 0.0252376 0.5
277 1 0.549116 0.409555 0.5
308 1 0.63006 0.0538137 0.5
354 1 0.587576 0.415011 0.5
33 1 0.547535 0.447219 0.5
219 1 0.504883 0.472072 0.5
380 1 0.688174 0.20665 0.5
178 1 0.533692 0.295335 0.5
329 1 0.738827 0.190255 0.5
172 1 0.739575 0.0336067 0.5
237 1 0.589151 0.106412 0.5
281 1 0.626283 0.0945811 0.5
135 1 0.677954 0.137548 0.5
165 1 0.5441 0.100517 0.5
396 1 0.689315 0.249944 0.5
331 1 0.65449 0.167508 0.5
268 1 0.57273 0.150038 0.5
243 1 0.671594 0.283816 0.5
115 1 0.529882 0.152693 0.5
287 1 0.712485 0.42481 0.5
141 1 0.620857 0.350844 0.5
162 1 0.738497 0.123197 0.5
231 1 0.731197 0.0731074 0.5
152 1 0.532921 0.226343 0.5
301 1 0.5256 0.00817436 0.5
211 1 0.554756 0.263908 0.5
327 1 0.681495 0.0395926 0.5
70 1 0.635404 0.42739 0.5
210 1 0.511625 0.349102 0.5
63 1 0.646647 0.255514 0.5
272 1 0.707022 0.160094 0.5
164 1 0.632696 0.467968 0.5
169 1 0.561386 0.192382 0.5
55 1 0.565755 0.330283 0.5
261 1 0.710329 0.0107582 0.5
228 1 0.617305 0.298045 0.5
173 1 0.666195 0.331407 0.5
350 1 0.616609 0.152845 0.5
203 1 0.547705 0.496541 0.5
275 1 0.724573 0.374718 0.5
189 1 0.628708 0.00900131 0.5
168 1 0.742931 0.290572 0.5
1 1 0.591761 0.49376 0.5
266 1 0.502481 0.116343 0.5
317 1 0.505219 0.271444 0.5
197 1 0.508007 0.0690168 0.5
278 1 0.693063 0.893486 0.5
238 1 0.545459 0.6554 0.5
212 1 0.706828 0.622155 0.5
333 1 0.684697 0.830444 0.5
376 1 0.631055 0.638197 0.5
258 1 0.552431 0.533576 0.5
245 1 0.721479 0.675278 0.5
205 1 0.554944 0.617421 0.5
28 1 0.670385 0.66546 0.5
13 1 0.506012 0.580108 0.5
249 1 0.731176 0.9795 0.5
353 1 0.731668 0.531792 0.5
344 1 0.541499 0.972173 0.5
171 1 0.65894 0.564 0.5
355 1 0.601395 0.726804 0.5
61 1 0.731673 0.843124 0.5
183 1 0.523289 0.702759 0.5
133 1 0.745696 0.573026 0.5
239 1 0.662093 0.783334 0.5
98 1 0.607853 0.833528 0.5
362 1 0.599825 0.672253 0.5
92 1 0.68987 0.698109 0.5
118 1 0.509964 0.872479 0.5
156 1 0.612868 0.794929 0.5
264 1 0.614862 0.955568 0.5
385 1 0.573174 0.758805 0.5
130 1 0.612683 0.604234 0.5
292 1 0.603019 0.892752 0.5
254 1 0.523651 0.781935 0.5
90 1 0.550062 0.815638 0.5
4 1 0.686026 0.527798 0.5
5 1 0.646289 0.860131 0.5
45 1 0.652655 0.741336 0.5
336 1 0.578131 0.982894 0.5
32 1 0.64055 0.895647 0.5
46 1 0.53181 0.928031 0.5
129 1 0.691176 0.948812 0.5
373 1 0.696894 0.766368 0.5
99 1 0.515983 0.521673 0.5
151 1 0.650839 0.97141 0.5
34 1 0.62607 0.535028 0.5
120 1 0.740936 0.927461 0.5
311 1 0.588458 0.559246 0.5
177 1 0.731369 0.746337 0.5
64 1 0.569883 0.942249 0.5
87 1 0.731737 0.799537 0.5
370 1 0.835559 0.287559 0.5
9 1 0.765477 0.226303 0.5
146 1 0.857377 0.129223 0.5
214 1 0.86038 0.426254 0.5
349 1 0.822098 0.0853502 0.5
393 1 0.984932 0.0248439 0.5
302 1 0.934988 0.291765 0.5
221 1 0.754706 0.334645 0.5
225 1 0.994501 0.363097 0.5
310 1 0.952991 0.0979967 0.5
320 1 0.964271 0.2082 0.5
262 1 0.984076 0.178362 0.5
286 1 0.791192 0.189501 0.5
100 1 0.991539 0.399508 0.5
226 1 0.752616 0.413735 0.5
160 1 0.836102 0.0160337 0.5
104 1 0.792178 0.455451 0.5
44 1 0.78875 0.308569 0.5
208 1 0.890477 0.14988 0.5
22 1 0.897868 0.342593 0.5
236 1 0.888821 0.298177 0.5
71 1 0.861408 0.222325 0.5
375 1 0.899889 0.0257559 0.5
202 1 0.935378 0.479272 0.5
297 1 0.894476 0.187575 0.5
132 1 0.931253 0.426813 0.5
306 1 0.851226 0.388367 0.5
159 1 0.898701 0.0828217 0.5
14 1 0.813562 0.402824 0.5
11 1 0.858032 0.332414 0.5
224 1 0.799543 0.264054 0.5
192 1 0.90793 0.228528 0.5
111 1 0.955458 0.0447839 0.5
392 1 0.837169 0.165649 0.5
150 1 0.951102 0.394553 0.5
12 1 0.965946 0.134863 0.5
148 1 0.769568 0.370236 0.5
50 1 0.969055 0.332946 0.5
382 1 0.801903 0.038412 0.5
56 1 0.900885 0.390366 0.5
153 1 0.94309 0.246476 0.5
326 1 0.768219 0.156394 0.5
198 1 0.934886 0.0100047 0.5
290 1 0.838175 0.491956 0.5
140 1 0.831248 0.452631 0.5
199 1 0.988352 0.240611 0.5
270 1 0.794653 0.128697 0.5
230 1 0.769845 0.0555432 0.5
48 1 0.999578 0.0822804 0.5
110 1 0.75657 0.49585 0.5
386 1 0.861658 0.986081 0.5
251 1 0.971334 0.792108 0.5
227 1 0.882175 0.696069 0.5
295 1 0.754969 0.707314 0.5
60 1 0.894892 0.843368 0.5
149 1 0.801164 0.523854 0.5
69 1 0.901597 0.580963 0.5
139 1 0.864593 0.570091 0.5
255 1 0.94284 0.748191 0.5
271 1 0.946769 0.608964 0.5
312 1 0.760253 0.669917 0.5
62 1 0.917245 0.546157 0.5
107 1 0.820092 0.563069 0.5
330 1 0.956294 0.668291 0.5
298 1 0.962972 0.516676 0.5
206 1 0.856903 0.615284 0.5
229 1 0.867072 0.651032 0.5
215 1 0.847178 0.791775 0.5
316 1 0.960716 0.574245 0.5
377 1 0.817596 0.977016 0.5
26 1 0.775439 0.99958 0.5
222 1 0.996779 0.588229 0.5
127 1 0.919373 0.634347 0.5
194 1 0.983479 0.914475 0.5
367 1 0.901142 0.987368 0.5
313 1 0.967233 0.955518 0.5
163 1 0.816228 0.605586 0.5
80 1 0.92174 0.793993 0.5
121 1 0.932092 0.707544 0.5
77 1 0.774289 0.617686 0.5
388 1 0.974121 0.727252 0.5
37 1 0.844069 0.730284 0.5
113 1 0.775012 0.839032 0.5
125 1 0.879154 0.922848 0.5
256 1 0.816464 0.767686 0.5
52 1 0.927475 0.864708 0.5
223 1 0.857053 0.528099 0.5
138 1 0.792581 0.714399 0.5
131 1 0.84459 0.683505 0.5
319 1 0.873324 0.884839 0.5
400 1 0.788751 0.916099 0.5
59 1 0.766403 0.768467 0.5
369 1 0.810444 0.807101 0.5
365 1 0.906608 0.734339 0.5
200 1 0.92676 0.90138 0.5
134 1 0.828121 0.843305 0.5
36 1 0.968911 0.991487 0.5
109 1 0.78349 0.877126 0.5
360 1 0.996239 0.671357 0.5
299 1 0.901782 0.510342 0.5
