ITEM: TIMESTEP
100000
ITEM: NUMBER OF ATOMS
400
ITEM: BOX BOUNDS pp pp pp
0.0000000000000000e+00 2.8284271247461902e+01
0.0000000000000000e+00 2.8284271247461902e+01
-7.0710678118654757e-01 7.0710678118654757e-01
ITEM: ATOMS id type xs ys zs
216 1 0.0333957 0.0459784 0.5
334 1 0.158826 0.101188 0.5
80 1 0.00615739 0.00253196 0.5
210 1 0.148138 0.0503297 0.5
224 1 0.180328 0.482162 0.5
390 1 0.106676 0.0473626 0.5
395 1 0.0897679 0.107521 0.5
316 1 0.04445 0.164095 0.5
120 1 0.0100932 0.354168 0.5
155 1 0.0276086 0.0826353 0.5
32 1 0.24538 0.479153 0.5
133 1 0.0145549 0.270768 0.5
244 1 0.139729 0.195495 0.5
388 1 0.113033 0.160087 0.5
66 1 0.247052 0.0634939 0.5
202 1 0.0526945 0.424327 0.5
257 1 0.0112996 0.197923 0.5
14 1 0.120075 0.122785 0.5
122 1 0.0792068 0.143327 0.5
90 1 0.133775 0.312285 0.5
260 1 0.223163 0.388563 0.5
362 1 0.204204 0.325229 0.5
46 1 0.0446648 0.291366 0.5
353 1 0.0789327 0.283975 0.5
284 1 0.0363612 0.226285 0.5
41 1 0.127913 0.0834131 0.5
16 1 0.0893133 0.232462 0.5
171 1 0.146838 0.376642 0.5
55 1 0.0456231 0.357534 0.5
310 1 0.0396805 0.130804 0.5
280 1 0.179599 0.400934 0.5
278 1 0.172398 0.308854 0.5
267 1 0.0267123 0.386643 0.5
50 1 0.0931374 0.32942 0.5
121 1 0.0722631 0.0160794 0.5
292 1 0.0408831 0.469995 0.5
108 1 0.124997 0.265478 0.5
380 1 0.0974578 0.434056 0.5
48 1 0.180187 0.449127 0.5
250 1 0.14953 0.163386 0.5
242 1 0.128967 0.4096 0.5
225 1 0.0888609 0.377543 0.5
245 1 0.197472 0.102923 0.5
343 1 0.092388 0.195948 0.5
131 1 0.173587 0.133342 0.5
103 1 0.135893 0.478055 0.5
118 1 0.228191 0.273222 0.5
387 1 0.224478 0.0335711 0.5
196 1 0.112962 0.00296553 0.5
201 1 0.135118 0.806231 0.5
223 1 0.0333109 0.554698 0.5
320 1 0.095106 0.582937 0.5
399 1 0.0307344 0.504273 0.5
288 1 0.0377341 0.892525 0.5
114 1 0.0611344 0.597197 0.5
110 1 0.0768813 0.883216 0.5
377 1 0.0503728 0.685087 0.5
268 1 0.125377 0.626419 0.5
396 1 0.233739 0.697511 0.5
176 1 0.0930396 0.841019 0.5
159 1 0.0704283 0.981314 0.5
12 1 0.203133 0.671935 0.5
222 1 0.0881426 0.940192 0.5
386 1 0.00484743 0.769322 0.5
143 1 0.130336 0.739565 0.5
231 1 0.174912 0.527425 0.5
248 1 0.0450242 0.649681 0.5
62 1 0.0769273 0.632568 0.5
145 1 0.049066 0.741191 0.5
4 1 0.154224 0.675039 0.5
287 1 0.128769 0.572328 0.5
389 1 0.198685 0.775363 0.5
199 1 0.0940852 0.701471 0.5
148 1 0.153509 0.766369 0.5
220 1 0.156602 0.712286 0.5
147 1 0.226379 0.633818 0.5
64 1 0.178289 0.818219 0.5
136 1 0.238139 0.876832 0.5
67 1 0.0727907 0.771076 0.5
85 1 0.0356776 0.855645 0.5
146 1 0.0918073 0.547919 0.5
262 1 0.237598 0.756867 0.5
273 1 0.185062 0.86733 0.5
311 1 0.179729 0.576782 0.5
106 1 0.192225 0.611654 0.5
324 1 0.0572561 0.804036 0.5
184 1 0.172039 0.942326 0.5
111 1 0.106569 0.909055 0.5
43 1 0.221886 0.517191 0.5
318 1 0.0249391 0.820853 0.5
319 1 0.0495254 0.942701 0.5
346 1 0.22698 0.954657 0.5
119 1 0.138516 0.859443 0.5
68 1 0.209044 0.557544 0.5
185 1 0.122729 0.950533 0.5
315 1 0.21978 0.904516 0.5
19 1 0.0669341 0.499972 0.5
162 1 0.0219909 0.716747 0.5
379 1 0.00724838 0.533765 0.5
282 1 0.00165924 0.595613 0.5
168 1 0.314767 0.484379 0.5
84 1 0.349004 0.0717513 0.5
163 1 0.448059 0.401764 0.5
359 1 0.443229 0.207793 0.5
341 1 0.286338 0.159515 0.5
338 1 0.35713 0.446463 0.5
214 1 0.326092 0.0382061 0.5
208 1 0.275908 0.0451557 0.5
206 1 0.252569 0.418237 0.5
150 1 0.316259 0.446129 0.5
269 1 0.3112 0.0936493 0.5
336 1 0.312907 0.134286 0.5
236 1 0.489956 0.437056 0.5
340 1 0.349158 0.16923 0.5
36 1 0.38363 0.419418 0.5
290 1 0.485983 0.209076 0.5
385 1 0.37822 0.10903 0.5
164 1 0.374963 0.205283 0.5
391 1 0.407593 0.216738 0.5
326 1 0.436876 0.247507 0.5
51 1 0.405803 0.0228703 0.5
263 1 0.478736 0.0118706 0.5
215 1 0.316383 0.254462 0.5
79 1 0.424556 0.0980161 0.5
355 1 0.407689 0.337714 0.5
237 1 0.399383 0.298107 0.5
10 1 0.312136 0.31284 0.5
100 1 0.279057 0.461448 0.5
128 1 0.374189 0.272448 0.5
42 1 0.473131 0.245685 0.5
23 1 0.454145 0.450286 0.5
332 1 0.278002 0.20969 0.5
327 1 0.326322 0.195587 0.5
213 1 0.400634 0.146299 0.5
400 1 0.357675 0.330905 0.5
317 1 0.437295 0.316114 0.5
96 1 0.322328 0.354232 0.5
286 1 0.472372 0.176755 0.5
6 1 0.297168 0.408427 0.5
74 1 0.361563 0.0361998 0.5
204 1 0.266158 0.36916 0.5
193 1 0.466108 0.115908 0.5
354 1 0.470309 0.359736 0.5
45 1 0.379182 0.491733 0.5
112 1 0.268394 0.325557 0.5
254 1 0.451509 0.28288 0.5
57 1 0.444252 0.487003 0.5
303 1 0.494904 0.291988 0.5
246 1 0.251173 0.158673 0.5
241 1 0.49757 0.0758252 0.5
78 1 0.331523 0.903002 0.5
296 1 0.32098 0.653333 0.5
82 1 0.459645 0.972122 0.5
149 1 0.312554 0.594792 0.5
219 1 0.377971 0.611736 0.5
243 1 0.36094 0.648613 0.5
275 1 0.277945 0.542695 0.5
384 1 0.325323 0.520497 0.5
277 1 0.250153 0.788541 0.5
35 1 0.451998 0.876632 0.5
397 1 0.42221 0.905175 0.5
98 1 0.417525 0.98641 0.5
27 1 0.264431 0.848063 0.5
374 1 0.277258 0.901126 0.5
266 1 0.30726 0.745707 0.5
165 1 0.393024 0.713333 0.5
306 1 0.340765 0.93488 0.5
265 1 0.483673 0.746579 0.5
314 1 0.280363 0.966978 0.5
182 1 0.465856 0.713609 0.5
207 1 0.381737 0.571695 0.5
92 1 0.358137 0.694561 0.5
166 1 0.441416 0.568881 0.5
157 1 0.298313 0.83351 0.5
7 1 0.378675 0.536409 0.5
381 1 0.304219 0.937476 0.5
156 1 0.464905 0.528006 0.5
102 1 0.271157 0.718026 0.5
26 1 0.332266 0.722375 0.5
378 1 0.455388 0.914376 0.5
76 1 0.469479 0.811002 0.5
238 1 0.427474 0.71778 0.5
91 1 0.426514 0.75213 0.5
234 1 0.25822 0.575171 0.5
363 1 0.340871 0.760799 0.5
251 1 0.375488 0.743241 0.5
205 1 0.380013 0.968443 0.5
294 1 0.391157 0.893488 0.5
95 1 0.420562 0.844542 0.5
72 1 0.496906 0.836876 0.5
364 1 0.3563 0.808001 0.5
178 1 0.277076 0.615149 0.5
349 1 0.342402 0.575213 0.5
325 1 0.452604 0.62934 0.5
53 1 0.413661 0.519859 0.5
376 1 0.523505 0.260581 0.5
18 1 0.566888 0.37859 0.5
172 1 0.505803 0.114201 0.5
99 1 0.621156 0.082185 0.5
261 1 0.749892 0.0346406 0.5
351 1 0.583514 0.176997 0.5
271 1 0.624447 0.418142 0.5
228 1 0.636767 0.45655 0.5
87 1 0.518759 0.0107773 0.5
373 1 0.682216 0.439345 0.5
107 1 0.652879 0.395864 0.5
135 1 0.646067 0.119499 0.5
313 1 0.680378 0.12329 0.5
227 1 0.589651 0.416826 0.5
33 1 0.506555 0.161775 0.5
28 1 0.560463 0.109524 0.5
335 1 0.73145 0.377714 0.5
190 1 0.676151 0.163188 0.5
142 1 0.709133 0.0367265 0.5
160 1 0.707274 0.290063 0.5
186 1 0.604532 0.29879 0.5
180 1 0.535982 0.178444 0.5
369 1 0.744167 0.256775 0.5
30 1 0.610477 0.122956 0.5
181 1 0.715258 0.141852 0.5
247 1 0.597495 0.477358 0.5
158 1 0.714419 0.341391 0.5
392 1 0.672858 0.250315 0.5
372 1 0.6995 0.205719 0.5
274 1 0.633175 0.151327 0.5
11 1 0.643636 0.345238 0.5
153 1 0.533378 0.33153 0.5
356 1 0.6775 0.367853 0.5
144 1 0.542254 0.143134 0.5
58 1 0.590579 0.238594 0.5
291 1 0.568559 0.0658977 0.5
54 1 0.574479 0.343723 0.5
371 1 0.558526 0.28059 0.5
77 1 0.662744 0.0480234 0.5
382 1 0.529684 0.0574815 0.5
126 1 0.55385 0.0255169 0.5
221 1 0.570791 0.444426 0.5
300 1 0.614573 0.200847 0.5
283 1 0.534608 0.484117 0.5
233 1 0.540182 0.40897 0.5
93 1 0.639987 0.298904 0.5
63 1 0.514212 0.367343 0.5
191 1 0.735562 0.477653 0.5
8 1 0.731498 0.432543 0.5
337 1 0.64242 0.0188998 0.5
138 1 0.716755 0.0928715 0.5
24 1 0.583767 0.000776143 0.5
302 1 0.674946 0.914989 0.5
94 1 0.610313 0.541393 0.5
295 1 0.50658 0.959133 0.5
22 1 0.579795 0.96754 0.5
61 1 0.653535 0.621107 0.5
52 1 0.667206 0.575843 0.5
127 1 0.609834 0.698202 0.5
365 1 0.595338 0.872086 0.5
255 1 0.51998 0.779625 0.5
370 1 0.567725 0.679701 0.5
125 1 0.585111 0.836279 0.5
75 1 0.571214 0.718079 0.5
394 1 0.553074 0.899999 0.5
342 1 0.714107 0.583156 0.5
258 1 0.539154 0.868674 0.5
229 1 0.697855 0.939538 0.5
209 1 0.549144 0.945924 0.5
232 1 0.731041 0.641017 0.5
60 1 0.596362 0.779783 0.5
132 1 0.741147 0.922903 0.5
368 1 0.618235 0.612721 0.5
59 1 0.577653 0.928126 0.5
366 1 0.662102 0.536675 0.5
328 1 0.670381 0.852063 0.5
240 1 0.591534 0.574133 0.5
38 1 0.532462 0.705725 0.5
116 1 0.653234 0.729951 0.5
170 1 0.629061 0.860293 0.5
1 1 0.679808 0.68181 0.5
361 1 0.536201 0.740426 0.5
39 1 0.638841 0.893815 0.5
175 1 0.724756 0.823809 0.5
304 1 0.675098 0.763245 0.5
9 1 0.640265 0.824811 0.5
297 1 0.550357 0.538951 0.5
285 1 0.748302 0.581125 0.5
49 1 0.714285 0.856139 0.5
345 1 0.636263 0.788455 0.5
344 1 0.717513 0.688527 0.5
347 1 0.553081 0.798414 0.5
189 1 0.718156 0.984609 0.5
239 1 0.62138 0.647574 0.5
105 1 0.714961 0.747914 0.5
37 1 0.511652 0.633158 0.5
13 1 0.57892 0.611111 0.5
174 1 0.735444 0.889557 0.5
34 1 0.512986 0.590809 0.5
70 1 0.515705 0.903589 0.5
81 1 0.615506 0.952013 0.5
357 1 0.57474 0.514853 0.5
3 1 0.519743 0.667945 0.5
2 1 0.508118 0.542969 0.5
140 1 0.683794 0.501743 0.5
152 1 0.795853 0.0159378 0.5
281 1 0.759376 0.188438 0.5
130 1 0.822826 0.179847 0.5
398 1 0.868711 0.165788 0.5
183 1 0.948283 0.0596856 0.5
154 1 0.848137 0.224359 0.5
276 1 0.911563 0.137081 0.5
270 1 0.938435 0.467392 0.5
56 1 0.947535 0.230172 0.5
289 1 0.960191 0.189929 0.5
211 1 0.820182 0.146067 0.5
272 1 0.764115 0.412935 0.5
161 1 0.757274 0.349259 0.5
299 1 0.895981 0.468326 0.5
177 1 0.875834 0.244446 0.5
29 1 0.822188 0.432732 0.5
192 1 0.912161 0.309558 0.5
333 1 0.898834 0.103249 0.5
305 1 0.953746 0.328048 0.5
20 1 0.811584 0.23541 0.5
352 1 0.879746 0.0670186 0.5
279 1 0.989219 0.232429 0.5
21 1 0.805593 0.299661 0.5
187 1 0.937017 0.276406 0.5
264 1 0.893305 0.213114 0.5
329 1 0.843262 0.265615 0.5
47 1 0.967139 0.131522 0.5
88 1 0.888554 0.373386 0.5
253 1 0.903458 0.0409708 0.5
113 1 0.80609 0.378043 0.5
151 1 0.884216 0.418633 0.5
129 1 0.79668 0.201356 0.5
249 1 0.835005 0.325656 0.5
40 1 0.803328 0.337575 0.5
307 1 0.750878 0.311345 0.5
194 1 0.777758 0.250702 0.5
115 1 0.959811 0.495284 0.5
69 1 0.80856 0.048336 0.5
293 1 0.869279 0.289975 0.5
97 1 0.913421 0.438066 0.5
17 1 1.00025 0.439562 0.5
123 1 0.924491 0.376318 0.5
117 1 0.981299 0.0845639 0.5
212 1 0.786987 0.453864 0.5
104 1 0.973148 0.296666 0.5
5 1 0.97553 0.410028 0.5
312 1 0.986925 0.160968 0.5
169 1 0.865056 0.446588 0.5
44 1 0.86254 0.0333401 0.5
235 1 0.832287 0.468165 0.5
200 1 0.964574 0.447097 0.5
73 1 0.901387 0.269511 0.5
15 1 0.936862 0.74512 0.5
203 1 0.870859 0.508718 0.5
259 1 0.912097 0.79315 0.5
367 1 0.871476 0.611075 0.5
331 1 0.932102 0.69894 0.5
137 1 0.896861 0.851048 0.5
308 1 0.9752 0.836343 0.5
339 1 0.997693 0.965052 0.5
256 1 0.820868 0.526659 0.5
198 1 0.969601 0.532064 0.5
360 1 0.851032 0.655546 0.5
139 1 0.908549 0.521995 0.5
167 1 0.838197 0.775921 0.5
383 1 0.867363 0.693034 0.5
109 1 0.866235 0.732037 0.5
330 1 0.928235 0.562178 0.5
309 1 0.756229 0.97476 0.5
101 1 0.988903 0.685221 0.5
141 1 0.813636 0.680981 0.5
71 1 0.830113 0.616954 0.5
252 1 0.792359 0.633555 0.5
179 1 0.911524 0.880358 0.5
218 1 0.986082 0.730579 0.5
230 1 0.952436 0.877263 0.5
197 1 0.812366 0.869341 0.5
134 1 0.962998 0.939573 0.5
86 1 0.927362 0.650228 0.5
301 1 0.845008 0.837985 0.5
217 1 0.88814 0.768988 0.5
226 1 0.761115 0.622101 0.5
323 1 0.75591 0.677955 0.5
321 1 0.892815 0.652161 0.5
298 1 0.787183 0.55351 0.5
31 1 0.96189 0.660703 0.5
322 1 0.853344 0.543988 0.5
65 1 0.776897 0.847541 0.5
350 1 0.880528 0.820233 0.5
393 1 0.954472 0.587525 0.5
348 1 0.868789 0.912179 0.5
124 1 0.985621 0.632323 0.5
375 1 0.782036 0.793378 0.5
195 1 0.897281 0.939622 0.5
173 1 0.933081 0.985737 0.5
358 1 0.866996 0.987585 0.5
89 1 0.812611 0.923475 0.5
188 1 0.968743 0.988514 0.5
25 1 0.824379 0.995708 0.5
83 1 0.752732 0.775753 0.5
