ITEM: TIMESTEP
100000
ITEM: NUMBER OF ATOMS
400
ITEM: BOX BOUNDS pp pp pp
0.0000000000000000e+00 2.2360679774997898e+01
0.0000000000000000e+00 2.2360679774997898e+01
-5.5901699437494745e-01 5.5901699437494745e-01
ITEM: ATOMS id type xs ys zs
149 1 0.181913 0.215767 0.5
295 1 0.0479163 0.088536 0.5
84 1 0.091329 0.0795116 0.5
391 1 0.183978 0.303591 0.5
78 1 0.0689185 0.471828 0.5
341 1 0.188478 0.0905532 0.5
286 1 0.0124246 0.391947 0.5
48 1 0.0759176 0.177121 0.5
7 1 0.0711094 0.132371 0.5
121 1 0.123059 0.239322 0.5
39 1 0.0792255 0.316786 0.5
376 1 0.227861 0.0232588 0.5
285 1 0.125607 0.300899 0.5
238 1 0.178963 0.261135 0.5
159 1 0.140985 0.191693 0.5
331 1 0.15754 0.33626 0.5
287 1 0.113575 0.460624 0.5
21 1 0.239292 0.32653 0.5
337 1 0.0252342 0.463941 0.5
124 1 0.0839835 0.267195 0.5
71 1 0.0784277 0.22289 0.5
53 1 0.232177 0.392782 0.5
311 1 0.156752 0.131021 0.5
33 1 0.0430473 0.349404 0.5
317 1 0.149894 0.434997 0.5
112 1 0.031961 0.200412 0.5
178 1 0.16699 0.47557 0.5
197 1 0.186599 0.161289 0.5
260 1 0.12786 0.368598 0.5
302 1 0.0845277 0.372632 0.5
142 1 0.18491 0.00487387 0.5
151 1 0.23179 0.0707328 0.5
127 1 0.203373 0.35125 0.5
14 1 0.0320234 0.243687 0.5
351 1 0.0332092 0.299718 0.5
12 1 0.112996 0.416355 0.5
325 1 0.240055 0.121848 0.5
253 1 0.0805049 0.0346304 0.5
134 1 0.140565 0.0819385 0.5
15 1 0.175224 0.398466 0.5
182 1 0.225199 0.446794 0.5
255 1 0.113849 0.120443 0.5
212 1 0.0306415 0.15701 0.5
281 1 0.0319562 0.0422025 0.5
116 1 0.0528032 0.412883 0.5
300 1 0.222742 0.263197 0.5
49 1 0.223886 0.203509 0.5
222 1 0.140705 0.0303055 0.5
247 1 0.21095 0.491609 0.5
123 1 0.143463 0.54155 0.5
59 1 0.100675 0.989377 0.5
296 1 0.176232 0.909808 0.5
372 1 0.166494 0.753596 0.5
135 1 0.149789 0.963709 0.5
306 1 0.164296 0.820118 0.5
226 1 0.218472 0.900685 0.5
352 1 0.1157 0.8662 0.5
225 1 0.241229 0.66623 0.5
51 1 0.136927 0.585484 0.5
266 1 0.180667 0.588415 0.5
181 1 0.217022 0.705157 0.5
355 1 0.149978 0.641038 0.5
161 1 0.0562137 0.624129 0.5
185 1 0.204363 0.775799 0.5
270 1 0.0787547 0.798409 0.5
65 1 0.103628 0.617103 0.5
205 1 0.0584284 0.519315 0.5
176 1 0.172247 0.709342 0.5
27 1 0.0441251 0.696707 0.5
189 1 0.193269 0.668559 0.5
88 1 0.0817149 0.670093 0.5
278 1 0.13173 0.686076 0.5
274 1 0.118911 0.820778 0.5
125 1 0.0492227 0.565776 0.5
152 1 0.127845 0.772015 0.5
271 1 0.0595485 0.913955 0.5
344 1 0.0845778 0.734128 0.5
70 1 0.224051 0.562756 0.5
322 1 0.0995657 0.945229 0.5
343 1 0.0684655 0.865307 0.5
394 1 0.102673 0.50737 0.5
98 1 0.0195825 0.783544 0.5
104 1 0.0132889 0.51756 0.5
219 1 0.210213 0.818115 0.5
208 1 0.0211256 0.94437 0.5
229 1 0.039941 0.832157 0.5
165 1 0.0263216 0.87866 0.5
89 1 0.132843 0.904467 0.5
174 1 0.181743 0.866277 0.5
192 1 0.234171 0.854255 0.5
8 1 0.206975 0.620432 0.5
323 1 0.19467 0.962818 0.5
348 1 0.0940488 0.561759 0.5
292 1 0.0427929 0.979655 0.5
312 1 0.0130986 0.60309 0.5
190 1 0.238626 0.944279 0.5
381 1 0.0259836 0.655343 0.5
139 1 0.238488 0.744707 0.5
73 1 0.006471 0.718429 0.5
398 1 0.000778278 0.999977 0.5
64 1 0.435556 0.467005 0.5
75 1 0.498162 0.172153 0.5
143 1 0.376905 0.333065 0.5
377 1 0.460782 0.418992 0.5
184 1 0.342264 0.368419 0.5
277 1 0.354533 0.101113 0.5
186 1 0.329224 0.410215 0.5
115 1 0.27049 0.0922131 0.5
364 1 0.406765 0.18738 0.5
291 1 0.280664 0.0489442 0.5
313 1 0.4811 0.376034 0.5
169 1 0.26355 0.471677 0.5
390 1 0.312803 0.086504 0.5
194 1 0.416857 0.251651 0.5
216 1 0.412011 0.422417 0.5
265 1 0.354895 0.015361 0.5
160 1 0.398605 0.00605062 0.5
101 1 0.380087 0.0646175 0.5
214 1 0.485633 0.283372 0.5
80 1 0.486285 0.0393451 0.5
91 1 0.419101 0.111856 0.5
126 1 0.457011 0.193867 0.5
2 1 0.438573 0.376075 0.5
220 1 0.429115 0.0645763 0.5
276 1 0.491348 0.49917 0.5
370 1 0.331029 0.203051 0.5
145 1 0.274346 0.297568 0.5
358 1 0.378638 0.278076 0.5
10 1 0.357787 0.233184 0.5
47 1 0.287061 0.199936 0.5
272 1 0.25549 0.235358 0.5
251 1 0.440995 0.152575 0.5
249 1 0.360089 0.469204 0.5
107 1 0.390224 0.379643 0.5
147 1 0.484423 0.238331 0.5
90 1 0.308748 0.457596 0.5
57 1 0.418064 0.297783 0.5
202 1 0.31172 0.25155 0.5
332 1 0.463587 0.089278 0.5
118 1 0.31022 0.139763 0.5
299 1 0.384431 0.14694 0.5
261 1 0.369413 0.42546 0.5
354 1 0.46643 0.332448 0.5
350 1 0.480034 0.133341 0.5
157 1 0.329694 0.315698 0.5
256 1 0.267589 0.426498 0.5
328 1 0.28571 0.371922 0.5
236 1 0.264152 0.160829 0.5
13 1 0.310013 0.0134341 0.5
168 1 0.292946 0.603212 0.5
326 1 0.347546 0.742272 0.5
92 1 0.451096 0.981732 0.5
273 1 0.284438 0.557662 0.5
94 1 0.441047 0.632829 0.5
204 1 0.346109 0.614711 0.5
153 1 0.414648 0.582181 0.5
347 1 0.463098 0.807929 0.5
235 1 0.458623 0.92807 0.5
308 1 0.418001 0.947469 0.5
362 1 0.473812 0.687413 0.5
330 1 0.328449 0.657344 0.5
117 1 0.266949 0.704442 0.5
137 1 0.404002 0.705859 0.5
183 1 0.433413 0.673441 0.5
360 1 0.327802 0.511588 0.5
28 1 0.374329 0.803021 0.5
254 1 0.251461 0.798592 0.5
207 1 0.390793 0.751074 0.5
171 1 0.42244 0.783358 0.5
283 1 0.394028 0.628485 0.5
245 1 0.341033 0.836484 0.5
170 1 0.367764 0.873539 0.5
386 1 0.445573 0.723977 0.5
69 1 0.33467 0.78128 0.5
83 1 0.288016 0.743219 0.5
167 1 0.265542 0.996282 0.5
243 1 0.370286 0.512778 0.5
297 1 0.295172 0.862389 0.5
336 1 0.329823 0.557427 0.5
340 1 0.284181 0.657811 0.5
97 1 0.294975 0.908371 0.5
218 1 0.294187 0.816172 0.5
228 1 0.423287 0.513174 0.5
262 1 0.418939 0.895002 0.5
233 1 0.438165 0.856552 0.5
54 1 0.366075 0.918676 0.5
368 1 0.495212 0.995842 0.5
32 1 0.470227 0.763743 0.5
321 1 0.397329 0.841155 0.5
199 1 0.381756 0.555935 0.5
129 1 0.325941 0.973315 0.5
221 1 0.35799 0.698789 0.5
259 1 0.375982 0.970872 0.5
393 1 0.289347 0.949435 0.5
200 1 0.491015 0.886577 0.5
95 1 0.471768 0.601049 0.5
16 1 0.451812 0.545744 0.5
67 1 0.488658 0.644183 0.5
301 1 0.494761 0.839931 0.5
180 1 0.252987 0.518741 0.5
310 1 0.252025 0.613909 0.5
246 1 0.66012 0.235799 0.5
305 1 0.603832 0.0750048 0.5
36 1 0.504554 0.419775 0.5
114 1 0.518922 0.0890277 0.5
79 1 0.71229 0.0526997 0.5
144 1 0.711138 0.157416 0.5
338 1 0.660174 0.378871 0.5
224 1 0.687658 0.450711 0.5
25 1 0.586713 0.444742 0.5
68 1 0.595877 0.125324 0.5
72 1 0.681959 0.117825 0.5
314 1 0.615072 0.247603 0.5
23 1 0.578366 0.0270205 0.5
81 1 0.542359 0.353522 0.5
93 1 0.59538 0.177336 0.5
17 1 0.635738 0.104483 0.5
353 1 0.728655 0.113071 0.5
106 1 0.623907 0.422001 0.5
234 1 0.536517 0.24249 0.5
206 1 0.61341 0.329238 0.5
327 1 0.642989 0.147284 0.5
387 1 0.710855 0.20241 0.5
58 1 0.559497 0.0733622 0.5
288 1 0.531667 0.0382409 0.5
244 1 0.690395 0.312484 0.5
335 1 0.630856 0.203226 0.5
211 1 0.670555 0.0739721 0.5
156 1 0.52826 0.459555 0.5
173 1 0.574841 0.26764 0.5
52 1 0.70011 0.254977 0.5
361 1 0.515239 0.314855 0.5
41 1 0.62407 0.473795 0.5
318 1 0.640993 0.28588 0.5
187 1 0.570848 0.397194 0.5
203 1 0.669504 0.183776 0.5
324 1 0.714229 0.356625 0.5
43 1 0.73246 0.432694 0.5
198 1 0.566829 0.313789 0.5
62 1 0.615569 0.376066 0.5
384 1 0.577249 0.490986 0.5
87 1 0.701336 0.492715 0.5
154 1 0.547708 0.129801 0.5
309 1 0.701826 0.397874 0.5
19 1 0.654143 0.33644 0.5
215 1 0.626495 0.0346751 0.5
110 1 0.541894 0.18269 0.5
241 1 0.74181 0.231902 0.5
50 1 0.578568 0.218326 0.5
357 1 0.677094 0.0104297 0.5
37 1 0.611622 0.933044 0.5
74 1 0.74074 0.562175 0.5
34 1 0.576078 0.898384 0.5
230 1 0.738416 0.604723 0.5
380 1 0.689649 0.537032 0.5
193 1 0.680869 0.58025 0.5
334 1 0.642903 0.557482 0.5
166 1 0.621258 0.637357 0.5
61 1 0.600581 0.586174 0.5
130 1 0.591886 0.987291 0.5
148 1 0.639721 0.971502 0.5
163 1 0.529221 0.522095 0.5
38 1 0.665457 0.683337 0.5
103 1 0.685011 0.726755 0.5
329 1 0.667317 0.629584 0.5
284 1 0.582922 0.659424 0.5
303 1 0.539214 0.659977 0.5
111 1 0.743108 0.753537 0.5
400 1 0.734699 0.940047 0.5
267 1 0.515299 0.568401 0.5
237 1 0.651412 0.803178 0.5
379 1 0.528103 0.618127 0.5
227 1 0.620544 0.681204 0.5
85 1 0.562863 0.700171 0.5
96 1 0.70798 0.656811 0.5
45 1 0.547199 0.995932 0.5
231 1 0.585895 0.808538 0.5
40 1 0.645626 0.850054 0.5
385 1 0.693825 0.814474 0.5
82 1 0.737852 0.852465 0.5
141 1 0.649632 0.759539 0.5
375 1 0.725368 0.894635 0.5
18 1 0.648901 0.513644 0.5
252 1 0.543941 0.826001 0.5
275 1 0.579788 0.853923 0.5
294 1 0.53388 0.871305 0.5
333 1 0.62314 0.890202 0.5
35 1 0.509839 0.780584 0.5
140 1 0.572804 0.765869 0.5
1 1 0.69152 0.770175 0.5
172 1 0.566803 0.946183 0.5
389 1 0.663896 0.917606 0.5
55 1 0.599201 0.721518 0.5
342 1 0.685125 0.965855 0.5
108 1 0.689754 0.873842 0.5
120 1 0.519275 0.921076 0.5
250 1 0.576468 0.546876 0.5
20 1 0.512501 0.736106 0.5
109 1 0.730512 0.987765 0.5
56 1 0.741135 0.514141 0.5
66 1 0.78784 0.221769 0.5
155 1 0.903167 0.119707 0.5
349 1 0.944324 0.372785 0.5
388 1 0.810072 0.337389 0.5
128 1 0.983574 0.354336 0.5
86 1 0.820513 0.0403197 0.5
269 1 0.767538 0.272139 0.5
6 1 0.961507 0.0298117 0.5
99 1 0.859247 0.074259 0.5
373 1 0.937834 0.0754138 0.5
4 1 0.853573 0.119114 0.5
191 1 0.863625 0.209602 0.5
240 1 0.927181 0.164766 0.5
213 1 0.873707 0.165916 0.5
239 1 0.942728 0.259709 0.5
396 1 0.893283 0.293646 0.5
26 1 0.897712 0.237357 0.5
315 1 0.781135 0.433564 0.5
133 1 0.82951 0.180689 0.5
383 1 0.887698 0.373901 0.5
264 1 0.985238 0.187175 0.5
100 1 0.925296 0.334643 0.5
9 1 0.84693 0.403081 0.5
395 1 0.899592 0.0508237 0.5
195 1 0.893476 0.494046 0.5
42 1 0.859945 0.333473 0.5
298 1 0.93251 0.210688 0.5
378 1 0.772905 0.101756 0.5
210 1 0.876847 0.448409 0.5
248 1 0.779436 0.057452 0.5
177 1 0.813607 0.0882009 0.5
363 1 0.93168 0.470935 0.5
105 1 0.75387 0.335188 0.5
29 1 0.807367 0.291743 0.5
356 1 0.91881 0.417904 0.5
282 1 0.759825 0.469743 0.5
371 1 0.857072 0.262799 0.5
31 1 0.786546 0.154776 0.5
60 1 0.805867 0.385914 0.5
217 1 0.755508 0.186243 0.5
158 1 0.972106 0.414177 0.5
279 1 0.978774 0.482304 0.5
22 1 0.970455 0.302338 0.5
136 1 0.982919 0.236464 0.5
289 1 0.81406 0.459811 0.5
223 1 0.98034 0.0857112 0.5
319 1 0.974268 0.12969 0.5
365 1 0.774929 0.0128135 0.5
196 1 0.870822 0.0168533 0.5
77 1 0.758849 0.379424 0.5
316 1 0.842271 0.491571 0.5
76 1 0.792774 0.498906 0.5
367 1 0.776333 0.900299 0.5
369 1 0.818756 0.907585 0.5
280 1 0.92515 0.995408 0.5
268 1 0.962978 0.865227 0.5
374 1 0.841618 0.551901 0.5
320 1 0.874522 0.791333 0.5
113 1 0.782019 0.544554 0.5
345 1 0.844373 0.822916 0.5
346 1 0.877573 0.888282 0.5
3 1 0.785135 0.955981 0.5
257 1 0.815145 0.995318 0.5
232 1 0.911829 0.532275 0.5
366 1 0.841474 0.598768 0.5
5 1 0.9677 0.52747 0.5
131 1 0.880302 0.692022 0.5
188 1 0.799715 0.597762 0.5
132 1 0.964725 0.666011 0.5
164 1 0.931798 0.575819 0.5
63 1 0.992821 0.563987 0.5
175 1 0.962262 0.721115 0.5
258 1 0.970963 0.61665 0.5
304 1 0.913687 0.720275 0.5
44 1 0.882328 0.570983 0.5
30 1 0.809334 0.705907 0.5
162 1 0.821606 0.785549 0.5
392 1 0.801337 0.643313 0.5
307 1 0.766621 0.806334 0.5
263 1 0.960797 0.78564 0.5
146 1 0.849622 0.646619 0.5
242 1 0.927291 0.627531 0.5
102 1 0.75861 0.694487 0.5
293 1 0.883364 0.618874 0.5
138 1 0.991836 0.831463 0.5
209 1 0.796641 0.853517 0.5
150 1 0.918746 0.766399 0.5
179 1 0.941261 0.825566 0.5
119 1 0.917436 0.669298 0.5
339 1 0.939446 0.92639 0.5
122 1 0.888915 0.932853 0.5
359 1 0.888621 0.835338 0.5
399 1 0.866721 0.746091 0.5
11 1 0.919083 0.874243 0.5
397 1 0.840942 0.865134 0.5
24 1 0.84762 0.95077 0.5
201 1 0.961284 0.966418 0.5
46 1 0.98562 0.921676 0.5
290 1 0.758664 0.649407 0.5
382 1 0.787332 0.763402 0.5
