ITEM: TIMESTEP
100000
ITEM: NUMBER OF ATOMS
400
ITEM: BOX BOUNDS pp pp pp
0.0000000000000000e+00 2.3904572186687872e+01
0.0000000000000000e+00 2.3904572186687872e+01
-5.9761430466719678e-01 5.9761430466719678e-01
ITEM: ATOMS id type xs ys zs
283 1 0.0936821 0.0192905 0.5
247 1 0.201441 0.0146594 0.5
189 1 0.248739 0.0210627 0.5
49 1 0.0546225 0.0387571 0.5
361 1 0.130348 0.0406341 0.5
309 1 0.0960599 0.0696661 0.5
132 1 0.160849 0.0832551 0.5
236 1 0.212555 0.0799251 0.5
288 1 0.0394339 0.0837331 0.5
221 1 0.12617 0.105832 0.5
75 1 0.240237 0.11033 0.5
270 1 0.0051167 0.129173 0.5
25 1 0.0721701 0.116177 0.5
146 1 0.168885 0.122754 0.5
10 1 0.0391754 0.163329 0.5
313 1 0.0900528 0.15797 0.5
362 1 0.13457 0.163818 0.5
150 1 0.207712 0.144057 0.5
217 1 0.0483028 0.203791 0.5
378 1 0.113967 0.20078 0.5
79 1 0.163602 0.197462 0.5
134 1 0.202964 0.209534 0.5
335 1 0.246842 0.220678 0.5
322 1 0.011287 0.233848 0.5
57 1 0.154408 0.239639 0.5
381 1 0.0744662 0.252369 0.5
182 1 0.115264 0.261553 0.5
341 1 0.186859 0.273663 0.5
9 1 0.227853 0.266868 0.5
395 1 0.0452698 0.281716 0.5
206 1 0.0888421 0.298855 0.5
209 1 0.144566 0.303318 0.5
85 1 0.215429 0.305336 0.5
289 1 0.0398963 0.327543 0.5
126 1 0.0875252 0.34415 0.5
232 1 0.164389 0.34842 0.5
179 1 0.229026 0.356071 0.5
72 1 0.0213917 0.372384 0.5
100 1 0.127761 0.383691 0.5
220 1 0.185513 0.383263 0.5
253 1 0.239673 0.39813 0.5
346 1 0.0319716 0.442124 0.5
125 1 0.0745405 0.417657 0.5
86 1 0.113424 0.437087 0.5
333 1 0.152215 0.420438 0.5
368 1 0.198571 0.421448 0.5
382 1 0.0768609 0.458263 0.5
282 1 0.170096 0.45745 0.5
310 1 0.211654 0.46739 0.5
304 1 0.0354637 0.482465 0.5
195 1 0.0039786 0.517871 0.5
20 1 0.0870719 0.511615 0.5
130 1 0.159145 0.506418 0.5
278 1 0.20019 0.513115 0.5
222 1 0.0471604 0.530901 0.5
30 1 0.130268 0.542009 0.5
51 1 0.0678564 0.578649 0.5
184 1 0.168434 0.55571 0.5
40 1 0.225702 0.569053 0.5
376 1 0.140707 0.592013 0.5
120 1 0.0243023 0.627569 0.5
158 1 0.066302 0.625972 0.5
22 1 0.113376 0.621969 0.5
299 1 0.161124 0.628465 0.5
349 1 0.201983 0.616746 0.5
90 1 0.185751 0.663984 0.5
216 1 0.242172 0.640376 0.5
118 1 0.00250259 0.671879 0.5
66 1 0.043848 0.676317 0.5
214 1 0.125192 0.674201 0.5
104 1 0.132549 0.714322 0.5
54 1 0.171746 0.701691 0.5
137 1 0.214738 0.709004 0.5
185 1 0.00876406 0.742293 0.5
202 1 0.0493635 0.725061 0.5
334 1 0.221834 0.749448 0.5
55 1 0.120939 0.757569 0.5
238 1 0.177961 0.752918 0.5
229 1 0.0355368 0.79016 0.5
73 1 0.0806606 0.777928 0.5
198 1 0.115812 0.797399 0.5
60 1 0.21864 0.790997 0.5
47 1 0.00859209 0.832455 0.5
122 1 0.0729095 0.82105 0.5
338 1 0.156875 0.820426 0.5
317 1 0.199328 0.827333 0.5
213 1 0.102492 0.851214 0.5
35 1 0.231284 0.859375 0.5
287 1 0.013344 0.875444 0.5
139 1 0.160701 0.864958 0.5
159 1 0.0500283 0.891612 0.5
15 1 0.131657 0.915139 0.5
131 1 0.198919 0.898601 0.5
157 1 0.0463266 0.93649 0.5
183 1 0.0855108 0.916796 0.5
53 1 0.23978 0.935484 0.5
390 1 0.110682 0.962484 0.5
366 1 0.156608 0.950371 0.5
77 1 0.220523 0.971198 0.5
245 1 0.0474583 0.980862 0.5
106 1 0.139046 0.9918 0.5
303 1 0.351587 0.00683817 0.5
348 1 0.442972 0.0192339 0.5
336 1 0.319284 0.0481582 0.5
331 1 0.395435 0.0287506 0.5
14 1 0.482498 0.0414997 0.5
242 1 0.284238 0.0723588 0.5
133 1 0.360959 0.0602772 0.5
180 1 0.402865 0.0807306 0.5
375 1 0.448288 0.0630605 0.5
174 1 0.315644 0.0978158 0.5
115 1 0.432192 0.107791 0.5
144 1 0.369929 0.117021 0.5
33 1 0.472708 0.116698 0.5
354 1 0.284649 0.144927 0.5
243 1 0.340655 0.156483 0.5
227 1 0.405709 0.141383 0.5
37 1 0.466693 0.155932 0.5
290 1 0.251665 0.174732 0.5
389 1 0.429902 0.181757 0.5
91 1 0.321173 0.196257 0.5
19 1 0.374925 0.20784 0.5
5 1 0.494756 0.204623 0.5
280 1 0.295551 0.231449 0.5
367 1 0.343236 0.236715 0.5
164 1 0.439668 0.240108 0.5
36 1 0.265914 0.265288 0.5
262 1 0.314575 0.28915 0.5
155 1 0.35689 0.281654 0.5
396 1 0.402869 0.278605 0.5
292 1 0.440722 0.29446 0.5
244 1 0.259362 0.306352 0.5
65 1 0.341191 0.324461 0.5
231 1 0.405747 0.319024 0.5
151 1 0.475797 0.317019 0.5
316 1 0.299354 0.34582 0.5
326 1 0.27634 0.383856 0.5
52 1 0.342851 0.38068 0.5
48 1 0.379915 0.36742 0.5
327 1 0.423265 0.374258 0.5
97 1 0.470403 0.362791 0.5
112 1 0.304119 0.41501 0.5
3 1 0.387285 0.408345 0.5
127 1 0.44155 0.414976 0.5
192 1 0.348737 0.424438 0.5
136 1 0.482431 0.423176 0.5
105 1 0.261037 0.448834 0.5
397 1 0.322437 0.466145 0.5
190 1 0.382811 0.463131 0.5
162 1 0.422345 0.458751 0.5
110 1 0.471151 0.46399 0.5
138 1 0.255075 0.490607 0.5
273 1 0.350809 0.524204 0.5
393 1 0.410641 0.512127 0.5
285 1 0.461905 0.504078 0.5
263 1 0.252271 0.536286 0.5
204 1 0.298191 0.530131 0.5
384 1 0.388256 0.555064 0.5
178 1 0.266321 0.579564 0.5
259 1 0.311763 0.570333 0.5
275 1 0.352047 0.572567 0.5
44 1 0.4407 0.580373 0.5
250 1 0.481634 0.574602 0.5
205 1 0.385135 0.608834 0.5
18 1 0.282077 0.63199 0.5
59 1 0.343141 0.630337 0.5
319 1 0.487547 0.618116 0.5
321 1 0.308599 0.66054 0.5
268 1 0.379271 0.652313 0.5
269 1 0.434298 0.642979 0.5
45 1 0.486788 0.662292 0.5
377 1 0.267745 0.684852 0.5
364 1 0.339703 0.688043 0.5
181 1 0.394757 0.690451 0.5
305 1 0.439943 0.700859 0.5
13 1 0.254889 0.727155 0.5
196 1 0.292075 0.748306 0.5
330 1 0.348163 0.733745 0.5
108 1 0.453582 0.744472 0.5
64 1 0.334259 0.772074 0.5
168 1 0.379962 0.758872 0.5
123 1 0.488027 0.77744 0.5
347 1 0.270294 0.790446 0.5
140 1 0.417071 0.781611 0.5
68 1 0.323446 0.814573 0.5
161 1 0.451011 0.816135 0.5
191 1 0.362883 0.838902 0.5
98 1 0.403275 0.837506 0.5
38 1 0.371797 0.880914 0.5
374 1 0.447909 0.879426 0.5
152 1 0.269944 0.892174 0.5
296 1 0.325145 0.890793 0.5
294 1 0.400798 0.91202 0.5
237 1 0.316079 0.935856 0.5
145 1 0.461881 0.921668 0.5
252 1 0.372165 0.949771 0.5
103 1 0.425434 0.94503 0.5
83 1 0.487012 0.964569 0.5
201 1 0.26713 0.974647 0.5
32 1 0.310951 0.986271 0.5
324 1 0.402287 0.981044 0.5
74 1 0.567939 0.0225423 0.5
2 1 0.63249 0.0257961 0.5
154 1 0.68924 0.0198096 0.5
257 1 0.525446 0.0489299 0.5
114 1 0.566817 0.0770523 0.5
385 1 0.605524 0.0697126 0.5
350 1 0.659248 0.0590038 0.5
228 1 0.734659 0.0652981 0.5
210 1 0.632915 0.100709 0.5
212 1 0.679244 0.104355 0.5
255 1 0.73279 0.105566 0.5
87 1 0.512935 0.138699 0.5
337 1 0.551707 0.124784 0.5
17 1 0.591335 0.127376 0.5
70 1 0.633553 0.141541 0.5
261 1 0.678231 0.156328 0.5
386 1 0.718187 0.155056 0.5
359 1 0.53179 0.190693 0.5
233 1 0.56808 0.174855 0.5
291 1 0.610109 0.173743 0.5
239 1 0.567157 0.220953 0.5
141 1 0.667389 0.197806 0.5
208 1 0.723 0.200904 0.5
215 1 0.526341 0.248682 0.5
241 1 0.604899 0.245305 0.5
62 1 0.648296 0.236163 0.5
175 1 0.562187 0.270588 0.5
167 1 0.70753 0.256714 0.5
93 1 0.505682 0.287828 0.5
371 1 0.616 0.286054 0.5
267 1 0.675959 0.282848 0.5
199 1 0.72446 0.295511 0.5
240 1 0.522118 0.326988 0.5
352 1 0.611082 0.32834 0.5
318 1 0.688937 0.33067 0.5
340 1 0.578875 0.357516 0.5
219 1 0.735847 0.338545 0.5
383 1 0.527943 0.373293 0.5
169 1 0.635561 0.364176 0.5
153 1 0.67466 0.377445 0.5
82 1 0.743072 0.386396 0.5
84 1 0.553107 0.415313 0.5
344 1 0.597828 0.405106 0.5
7 1 0.627784 0.430682 0.5
302 1 0.681682 0.418843 0.5
256 1 0.72249 0.430956 0.5
1 1 0.528382 0.450774 0.5
392 1 0.584921 0.446409 0.5
95 1 0.697125 0.460981 0.5
16 1 0.508968 0.484952 0.5
99 1 0.646018 0.481631 0.5
311 1 0.725287 0.494147 0.5
372 1 0.564337 0.500309 0.5
58 1 0.606529 0.503785 0.5
113 1 0.682887 0.505962 0.5
96 1 0.541958 0.539684 0.5
351 1 0.644794 0.533928 0.5
379 1 0.705466 0.540606 0.5
166 1 0.587217 0.564664 0.5
342 1 0.627401 0.576247 0.5
109 1 0.667636 0.570801 0.5
39 1 0.522923 0.596411 0.5
172 1 0.711743 0.584488 0.5
163 1 0.564173 0.611292 0.5
258 1 0.609688 0.631213 0.5
56 1 0.648553 0.621498 0.5
188 1 0.741559 0.618134 0.5
307 1 0.525715 0.64505 0.5
101 1 0.71487 0.656945 0.5
111 1 0.515552 0.692874 0.5
298 1 0.598066 0.677217 0.5
284 1 0.659793 0.678075 0.5
88 1 0.73886 0.690857 0.5
343 1 0.559783 0.697102 0.5
143 1 0.615835 0.72183 0.5
391 1 0.658624 0.717695 0.5
80 1 0.701275 0.709238 0.5
264 1 0.529141 0.732204 0.5
345 1 0.738077 0.734783 0.5
129 1 0.580232 0.754596 0.5
387 1 0.63615 0.754887 0.5
200 1 0.680223 0.754094 0.5
218 1 0.52894 0.785932 0.5
29 1 0.568574 0.797711 0.5
225 1 0.612173 0.798846 0.5
207 1 0.674718 0.804146 0.5
272 1 0.714143 0.788887 0.5
265 1 0.644098 0.833256 0.5
312 1 0.728732 0.82783 0.5
173 1 0.505856 0.834813 0.5
12 1 0.54242 0.857881 0.5
365 1 0.595955 0.849302 0.5
67 1 0.699192 0.855043 0.5
274 1 0.501394 0.884796 0.5
388 1 0.644297 0.882016 0.5
187 1 0.585868 0.89429 0.5
147 1 0.698896 0.894836 0.5
107 1 0.516251 0.936235 0.5
41 1 0.611377 0.925609 0.5
394 1 0.654035 0.921884 0.5
380 1 0.688298 0.940989 0.5
142 1 0.555268 0.953486 0.5
254 1 0.613069 0.96814 0.5
11 1 0.718533 0.971041 0.5
211 1 0.520737 0.989923 0.5
177 1 0.665176 0.978817 0.5
23 1 0.962686 0.00966304 0.5
117 1 0.872427 0.0491653 0.5
357 1 0.927589 0.0394106 0.5
353 1 0.990441 0.0451391 0.5
124 1 0.788599 0.0559249 0.5
306 1 0.806663 0.104888 0.5
119 1 0.854715 0.0893187 0.5
148 1 0.920638 0.0945617 0.5
170 1 0.977564 0.0965977 0.5
135 1 0.858508 0.156015 0.5
328 1 0.938437 0.143841 0.5
203 1 0.798849 0.17031 0.5
400 1 0.90075 0.183146 0.5
279 1 0.766704 0.197667 0.5
165 1 0.86352 0.195575 0.5
360 1 0.952048 0.207201 0.5
308 1 0.751888 0.237154 0.5
363 1 0.8354 0.227309 0.5
24 1 0.873171 0.249639 0.5
121 1 0.908042 0.22342 0.5
26 1 0.934409 0.253988 0.5
323 1 0.97069 0.277309 0.5
128 1 0.761016 0.280661 0.5
373 1 0.804962 0.285425 0.5
42 1 0.900665 0.282864 0.5
286 1 0.791348 0.322901 0.5
230 1 0.833369 0.316282 0.5
4 1 0.884821 0.321127 0.5
358 1 0.937753 0.331529 0.5
43 1 0.98275 0.33267 0.5
50 1 0.854385 0.350159 0.5
295 1 0.787867 0.367274 0.5
171 1 0.827217 0.386091 0.5
297 1 0.943609 0.386455 0.5
176 1 0.784268 0.407445 0.5
116 1 0.891427 0.390353 0.5
186 1 0.995 0.404437 0.5
249 1 0.857041 0.420167 0.5
260 1 0.912039 0.435568 0.5
46 1 0.95473 0.428247 0.5
27 1 0.751762 0.456996 0.5
194 1 0.835192 0.468771 0.5
81 1 0.988172 0.460042 0.5
315 1 0.890277 0.481361 0.5
89 1 0.955496 0.486102 0.5
94 1 0.808977 0.50537 0.5
251 1 0.901427 0.521213 0.5
21 1 0.779672 0.536044 0.5
301 1 0.862148 0.539742 0.5
329 1 0.944301 0.53903 0.5
224 1 0.767652 0.580864 0.5
235 1 0.831036 0.562146 0.5
34 1 0.914106 0.579281 0.5
69 1 0.957225 0.577702 0.5
92 1 0.993522 0.563169 0.5
193 1 0.863381 0.59015 0.5
355 1 0.830263 0.613474 0.5
248 1 0.933411 0.615272 0.5
246 1 0.979887 0.612584 0.5
234 1 0.789651 0.65712 0.5
339 1 0.85879 0.645924 0.5
8 1 0.915113 0.663243 0.5
399 1 0.964482 0.659124 0.5
63 1 0.857777 0.692019 0.5
276 1 0.818228 0.711162 0.5
320 1 0.921118 0.70401 0.5
369 1 0.965493 0.720586 0.5
398 1 0.777459 0.726946 0.5
71 1 0.85233 0.765243 0.5
160 1 0.919269 0.763995 0.5
314 1 0.752595 0.779214 0.5
102 1 0.887039 0.78845 0.5
281 1 0.94338 0.797719 0.5
293 1 0.982065 0.786352 0.5
370 1 0.784019 0.823848 0.5
277 1 0.842172 0.82218 0.5
6 1 0.879146 0.839887 0.5
197 1 0.919025 0.859195 0.5
61 1 0.964534 0.838656 0.5
271 1 0.766777 0.864352 0.5
226 1 0.846622 0.863525 0.5
78 1 0.966829 0.881179 0.5
149 1 0.7848 0.902331 0.5
223 1 0.878886 0.909047 0.5
325 1 0.994159 0.913892 0.5
156 1 0.811178 0.942259 0.5
300 1 0.91788 0.928401 0.5
28 1 0.960129 0.939271 0.5
332 1 0.759393 0.948104 0.5
356 1 0.761564 0.990496 0.5
266 1 0.826176 0.986177 0.5
31 1 0.883444 0.980814 0.5
76 1 0.990921 0.976962 0.5
